 Q-Chem 4.3, Q-Chem, Inc., Pleasanton, CA (2015)
 Q-Chem 4.3.0 for Intel X86 Linux

User input:
--------------------------------------------------------------
$comment
job3 - cvs-adc(2)-x calculation with mom to prevent collapse to ground state
$end

$molecule
0 1
C    -0.696126    -1.136419     0.000000
C     0.696126    -1.136419     0.000000
N    -1.417532     0.000000     0.000000
N     1.417532     0.000000     0.000000
C     0.696126     1.136419     0.000000
C    -0.696126     1.136419     0.000000
H     1.250625     2.067160     0.000000
H    -1.250625     2.067160     0.000000
H     1.250625    -2.067160     0.000000
H    -1.250625    -2.067160     0.000000
$end

$rem
mem_total 3000
mem_static 1500
sym_ignore true
method cvs-adc(1)
basis 6-31G*
ee_singlets 30
cc_rest_occ 2                  !only excitations from orbitals 1&2 (N 1s)
unrestricted  true
max_scf_cycles 200
$end

--------------------------------------------------------------

             Standard Nuclear Orientation (Angstroms)
    I     Atom           X                Y                Z
 ----------------------------------------------------------------
    1      C      -0.6961260000    -1.1364190000     0.0000000000
    2      C       0.6961260000    -1.1364190000     0.0000000000
    3      N      -1.4175320000     0.0000000000     0.0000000000
    4      N       1.4175320000     0.0000000000     0.0000000000
    5      C       0.6961260000     1.1364190000     0.0000000000
    6      C      -0.6961260000     1.1364190000     0.0000000000
    7      H       1.2506250000     2.0671600000     0.0000000000
    8      H      -1.2506250000     2.0671600000     0.0000000000
    9      H       1.2506250000    -2.0671600000     0.0000000000
   10      H      -1.2506250000    -2.0671600000     0.0000000000
 ----------------------------------------------------------------

   12    -262.6792998248      3.05E-09 Convergence criterion met
 Total energy in the final basis set = -262.6792998248
  Term symbol:  2 (-) A                                     R^2 =  1.03277e-12
  Excitation energy:                                             409.649225 eV
  Term symbol:  3 (-) A                                     R^2 =  1.03277e-12
  Excitation energy:                                             409.649435 eV
  Term symbol:  4 (-) A                                     R^2 =  8.10958e-13
  Excitation energy:                                             411.312265 eV
  Term symbol:  5 (-) A                                     R^2 =  8.61659e-13
  Excitation energy:                                             411.315143 eV
  Term symbol:  6 (-) A                                     R^2 =  2.32853e-13
  Excitation energy:                                             419.266139 eV
  Term symbol:  7 (-) A                                     R^2 =  6.90160e-13
  Excitation energy:                                             419.266278 eV
  Term symbol:  8 (-) A                                     R^2 =  5.80170e-12
  Excitation energy:                                             419.700594 eV
  Term symbol:  9 (-) A                                     R^2 =  2.34491e-12
  Excitation energy:                                             419.700658 eV
  Term symbol:  10 (-) A                                    R^2 =  8.46493e-12
  Excitation energy:                                             420.206752 eV
  Excited state 10 (A)                                             [converged]
  Term symbol:  11 (-) A                                    R^2 =  8.46569e-12
  Excitation energy:                                             420.207193 eV
  Excited state 11 (A)                                             [converged]
  Term symbol:  12 (-) A                                    R^2 =  8.55574e-12
  Excitation energy:                                             420.207432 eV
  Excited state 12 (A)                                             [converged]
  Term symbol:  13 (-) A                                    R^2 =  8.52045e-12
  Excitation energy:                                             420.207874 eV
  Excited state 13 (A)                                             [converged]
  Term symbol:  14 (-) A                                    R^2 =  3.58848e-12
  Excitation energy:                                             421.605099 eV
  Excited state 14 (A)                                             [converged]
  Term symbol:  15 (-) A                                    R^2 =  1.58587e-11
  Excitation energy:                                             421.607210 eV
  Excited state 15 (A)                                             [converged]
  Term symbol:  16 (-) A                                    R^2 =  5.59338e-12
  Excitation energy:                                             421.609964 eV
  Excited state 16 (A)                                             [converged]
  Term symbol:  17 (-) A                                    R^2 =  5.03467e-12
  Excitation energy:                                             421.612975 eV
  Excited state 17 (A)                                             [converged]
  Excitation energy:                                             424.893392 eV
  Excited state 18 (A)                                             [converged]
  Term symbol:  19 (-) A                                    R^2 =  3.47540e-10
  Excitation energy:                                             424.893697 eV
  Excited state 19 (A)                                             [converged]
  Term symbol:  20 (-) A                                    R^2 =  2.69014e-08
  Excitation energy:                                             424.944191 eV
  Excited state 20 (A)                                             [converged]
  Term symbol:  21 (-) A                                    R^2 =  7.19002e-09
  Excitation energy:                                             424.944416 eV
  Excited state 21 (A)                                             [converged]
  Term symbol:  22 (-) A                                    R^2 =  1.19089e-11
  Excitation energy:                                             425.753252 eV
  Excited state 22 (A)                                             [converged]
  Term symbol:  23 (-) A                                    R^2 =  5.66904e-12
  Excitation energy:                                             425.753407 eV
  Excited state 23 (A)                                             [converged]
  Term symbol:  24 (-) A                                    R^2 =  1.27261e-11
  Excitation energy:                                             425.920637 eV
  Excited state 24 (A)                                             [converged]
  Term symbol:  25 (-) A                                    R^2 =  6.50540e-12
  Excitation energy:                                             425.921102 eV
  Excited state 25 (A)                                             [converged]
  Term symbol:  26 (-) A                                    R^2 =  2.12183e-08
  Excitation energy:                                             426.086763 eV
  Excited state 26 (A)                                             [converged]
  Term symbol:  27 (-) A                                    R^2 =  2.14489e-08
  Excitation energy:                                             426.086916 eV
  Excited state 27 (A)                                             [converged]
  Term symbol:  28 (-) A                                    R^2 =  1.59372e-07
  Excitation energy:                                             426.225115 eV
  Excited state 28 (A)                                             [converged]
  Term symbol:  29 (-) A                                    R^2 =  2.15301e-08
  Excitation energy:                                             426.225378 eV
  Excited state 29 (A)                                             [converged]
  Term symbol:  30 (-) A                                    R^2 =  7.08355e-07
  Excitation energy:                                             426.227362 eV
  Excited state 30 (A)                                             [converged]
  Term symbol:  31 (-) A                                    R^2 =  6.67205e-09
  Excitation energy:                                             426.227613 eV

                    Orbital Energies (a.u.)
 --------------------------------------------------------------

 Alpha MOs
 -- Occupied --
-15.600 -15.600 -11.287 -11.287 -11.286 -11.286  -1.301  -1.213
 -1.052  -0.902  -0.883  -0.724  -0.698  -0.677  -0.610  -0.568
 -0.547  -0.496  -0.428  -0.411  -0.358

 Beta MOs
 -- Occupied --
-15.600 -15.600 -11.287 -11.287 -11.286 -11.286  -1.301  -1.213
 -1.052  -0.902  -0.883  -0.724  -0.698  -0.677  -0.610  -0.568
 -0.547  -0.496  -0.428  -0.411  -0.358

          Ground-State Mulliken Net Atomic Charges

     Atom                 Charge (a.u.)    Spin (a.u.)
  --------------------------------------------------------
      1 C                     0.014416       0.000000
      2 C                     0.014416       0.000000
      3 N                    -0.464762       0.000000
      4 N                    -0.464762       0.000000
      5 C                     0.014416       0.000000
      6 C                     0.014416       0.000000
      7 H                     0.217964       0.000000
      8 H                     0.217964       0.000000
      9 H                     0.217964       0.000000
     10 H                     0.217964       0.000000
  --------------------------------------------------------
  Sum of atomic charges =     0.000000

                    Cartesian Multipole Moments
 -----------------------------------------------------------------
    Charge (ESU x 10^10)
                 0.0000
    Dipole Moment (Debye)
         X       0.0000      Y       0.0000      Z       0.0000
       Tot       0.0000
    Quadrupole Moments (Debye-Ang)
        XX     -41.5290     XY       0.0000     YY     -26.0158
        XZ       0.0000     YZ       0.0000     ZZ     -36.3330

 Total job time:  69.51s(wall), 164.80s(cpu)
        *  Thank you very much for using Q-Chem.  Have a nice day.  *
