 Q-Chem 4.3, Q-Chem, Inc., Pleasanton, CA (2015)
 Q-Chem 4.3.0 for Intel X86 Linux

User input:
--------------------------------------------------------------
$comment
job3 - cvs-adc(2)-x calculation with mom to prevent collapse to ground state
$end

$molecule
0 1
C    -0.696126    -1.136419     0.000000
C     0.696126    -1.136419     0.000000
N    -1.417532     0.000000     0.000000
N     1.417532     0.000000     0.000000
C     0.696126     1.136419     0.000000
C    -0.696126     1.136419     0.000000
H     1.250625     2.067160     0.000000
H    -1.250625     2.067160     0.000000
H     1.250625    -2.067160     0.000000
H    -1.250625    -2.067160     0.000000
$end

$rem
mem_total 12000
mem_static 6000
sym_ignore true
method cvs-adc(2)
basis 6-31G*
ee_singlets 30
cc_rest_occ 2                  !only excitations from orbitals 1&2 (N 1s)
unrestricted  true
max_scf_cycles 200
$end

--------------------------------------------------------------

             Standard Nuclear Orientation (Angstroms)
    I     Atom           X                Y                Z
 ----------------------------------------------------------------
    1      C      -0.6961260000    -1.1364190000     0.0000000000
    2      C       0.6961260000    -1.1364190000     0.0000000000
    3      N      -1.4175320000     0.0000000000     0.0000000000
    4      N       1.4175320000     0.0000000000     0.0000000000
    5      C       0.6961260000     1.1364190000     0.0000000000
    6      C      -0.6961260000     1.1364190000     0.0000000000
    7      H       1.2506250000     2.0671600000     0.0000000000
    8      H      -1.2506250000     2.0671600000     0.0000000000
    9      H       1.2506250000    -2.0671600000     0.0000000000
   10      H      -1.2506250000    -2.0671600000     0.0000000000
 ----------------------------------------------------------------

   12    -262.6792998248      3.05E-09 Convergence criterion met
 Total energy in the final basis set = -262.6792998248
  Term symbol:  2 (-) A                                     R^2 =  5.90036e-13
  Excitation energy:                                             402.208646 eV
  Term symbol:  3 (-) A                                     R^2 =  5.88212e-13
  Excitation energy:                                             402.209091 eV
  Term symbol:  4 (-) A                                     R^2 =  2.56649e-13
  Excitation energy:                                             402.971704 eV
  Term symbol:  5 (-) A                                     R^2 =  2.62522e-13
  Excitation energy:                                             402.972820 eV
  Term symbol:  6 (-) A                                     R^2 =  2.86098e-13
  Excitation energy:                                             404.577705 eV
  Term symbol:  7 (-) A                                     R^2 =  2.86876e-13
  Excitation energy:                                             404.578182 eV
  Term symbol:  8 (-) A                                     R^2 =  1.14648e-12
  Excitation energy:                                             404.618098 eV
  Term symbol:  9 (-) A                                     R^2 =  1.14233e-12
  Excitation energy:                                             404.618598 eV
  Term symbol:  10 (-) A                                    R^2 =  4.23242e-13
  Excitation energy:                                             408.741382 eV
  Excited state 10 (A)                                             [converged]
  Term symbol:  11 (-) A                                    R^2 =  4.23660e-13
  Excitation energy:                                             408.741807 eV
  Excited state 11 (A)                                             [converged]
  Term symbol:  12 (-) A                                    R^2 =  2.84916e-13
  Excitation energy:                                             408.875834 eV
  Excited state 12 (A)                                             [converged]
  Term symbol:  13 (-) A                                    R^2 =  2.84478e-13
  Excitation energy:                                             408.876301 eV
  Excited state 13 (A)                                             [converged]
  Term symbol:  14 (-) A                                    R^2 =  4.87326e-13
  Excitation energy:                                             408.926367 eV
  Excited state 14 (A)                                             [converged]
  Term symbol:  15 (-) A                                    R^2 =  4.76887e-13
  Excitation energy:                                             408.926798 eV
  Excited state 15 (A)                                             [converged]
  Term symbol:  16 (-) A                                    R^2 =  5.55244e-13
  Excitation energy:                                             408.970958 eV
  Excited state 16 (A)                                             [converged]
  Term symbol:  17 (-) A                                    R^2 =  5.54716e-13
  Excitation energy:                                             408.971855 eV
  Excited state 17 (A)                                             [converged]
  Excitation energy:                                             409.034728 eV
  Excited state 18 (A)                                             [converged]
  Term symbol:  19 (-) A                                    R^2 =  1.89103e-12
  Excitation energy:                                             409.035073 eV
  Excited state 19 (A)                                             [converged]
  Term symbol:  20 (-) A                                    R^2 =  5.52292e-10
  Excitation energy:                                             409.543425 eV
  Excited state 20 (A)                                             [converged]
  Term symbol:  21 (-) A                                    R^2 =  1.64641e-11
  Excitation energy:                                             409.543878 eV
  Excited state 21 (A)                                             [converged]
  Term symbol:  22 (-) A                                    R^2 =  4.48082e-11
  Excitation energy:                                             409.543971 eV
  Excited state 22 (A)                                             [converged]
  Term symbol:  23 (-) A                                    R^2 =  2.21220e-12
  Excitation energy:                                             409.544438 eV
  Excited state 23 (A)                                             [converged]
  Term symbol:  24 (-) A                                    R^2 =  3.32396e-13
  Excitation energy:                                             409.882602 eV
  Excited state 24 (A)                                             [converged]
  Term symbol:  25 (-) A                                    R^2 =  3.61266e-13
  Excitation energy:                                             409.882801 eV
  Excited state 25 (A)                                             [converged]
  Term symbol:  26 (-) A                                    R^2 =  1.33474e-09
  Excitation energy:                                             410.459689 eV
  Excited state 26 (A)                                         [not converged]
  Term symbol:  27 (-) A                                    R^2 =  2.85585e-06
  Excitation energy:                                             410.460088 eV
  Excited state 27 (A)                                             [converged]
  Term symbol:  28 (-) A                                    R^2 =  1.15646e-12
  Excitation energy:                                             410.502897 eV
  Excited state 28 (A)                                             [converged]
  Term symbol:  29 (-) A                                    R^2 =  1.17120e-12
  Excitation energy:                                             410.503274 eV
  Excited state 29 (A)                                             [converged]
  Term symbol:  30 (-) A                                    R^2 =  1.45081e-12
  Excitation energy:                                             410.511482 eV
  Excited state 30 (A)                                             [converged]
  Term symbol:  31 (-) A                                    R^2 =  1.47816e-12
  Excitation energy:                                             410.511873 eV

                    Orbital Energies (a.u.)
 --------------------------------------------------------------

 Alpha MOs
 -- Occupied --
-15.600 -15.600 -11.287 -11.287 -11.286 -11.286  -1.301  -1.213
 -1.052  -0.902  -0.883  -0.724  -0.698  -0.677  -0.610  -0.568
 -0.547  -0.496  -0.428  -0.411  -0.358

 Beta MOs
 -- Occupied --
-15.600 -15.600 -11.287 -11.287 -11.286 -11.286  -1.301  -1.213
 -1.052  -0.902  -0.883  -0.724  -0.698  -0.677  -0.610  -0.568
 -0.547  -0.496  -0.428  -0.411  -0.358

          Ground-State Mulliken Net Atomic Charges

     Atom                 Charge (a.u.)    Spin (a.u.)
  --------------------------------------------------------
      1 C                     0.014416       0.000000
      2 C                     0.014416       0.000000
      3 N                    -0.464762       0.000000
      4 N                    -0.464762       0.000000
      5 C                     0.014416       0.000000
      6 C                     0.014416       0.000000
      7 H                     0.217964       0.000000
      8 H                     0.217964       0.000000
      9 H                     0.217964       0.000000
     10 H                     0.217964       0.000000
  --------------------------------------------------------
  Sum of atomic charges =     0.000000

                    Cartesian Multipole Moments
 -----------------------------------------------------------------
    Charge (ESU x 10^10)
                 0.0000
    Dipole Moment (Debye)
         X       0.0000      Y       0.0000      Z       0.0000
       Tot       0.0000
    Quadrupole Moments (Debye-Ang)
        XX     -41.5290     XY       0.0000     YY     -26.0158
        XZ       0.0000     YZ       0.0000     ZZ     -36.3330

 Total job time:  7368.75s(wall), 7098.55s(cpu)
        *  Thank you very much for using Q-Chem.  Have a nice day.  *
