 Q-Chem 4.3, Q-Chem, Inc., Pleasanton, CA (2015)
 Q-Chem 4.3.0 for Intel X86 Linux

User input:
--------------------------------------------------------------
$molecule
0 1
C    -0.696126    -1.136419     0.000000
C     0.696126    -1.136419     0.000000
N    -1.417532     0.000000     0.000000
N     1.417532     0.000000     0.000000
C     0.696126     1.136419     0.000000
C    -0.696126     1.136419     0.000000
H     1.250625     2.067160     0.000000
H    -1.250625     2.067160     0.000000
H     1.250625    -2.067160     0.000000
H    -1.250625    -2.067160     0.000000
$end

$rem
exchange b3lyp
basis 6-31G*
sym_ignore true
cis_n_roots 30
cis_triplets false
$end

--------------------------------------------------------------

             Standard Nuclear Orientation (Angstroms)
    I     Atom           X                Y                Z
 ----------------------------------------------------------------
    1      C      -0.6961260000    -1.1364190000     0.0000000000
    2      C       0.6961260000    -1.1364190000     0.0000000000
    3      N      -1.4175320000     0.0000000000     0.0000000000
    4      N       1.4175320000     0.0000000000     0.0000000000
    5      C       0.6961260000     1.1364190000     0.0000000000
    6      C      -0.6961260000     1.1364190000     0.0000000000
    7      H       1.2506250000     2.0671600000     0.0000000000
    8      H      -1.2506250000     2.0671600000     0.0000000000
    9      H       1.2506250000    -2.0671600000     0.0000000000
   10      H      -1.2506250000    -2.0671600000     0.0000000000
 ----------------------------------------------------------------

   10    -264.3168796582      8.60E-09 Convergence criterion met
 Total energy in the final basis set = -264.3168796582

         TDDFT/TDA Excitation Energies
 ---------------------------------------------------

 Excited state   1: excitation energy (eV) =    4.0840
    Total energy for state   1:   -264.166796500660
    Multiplicity: Singlet
    Trans. Mom.:  0.0000 X   0.0000 Y  -0.2808 Z
    Strength   :  0.0079
    D( 21) --> V(  1) amplitude =  0.9981

 Excited state   2: excitation energy (eV) =    4.8022
    Total energy for state   2:   -264.140402841512
    Multiplicity: Singlet
    Trans. Mom.:  0.0000 X   0.0000 Y   0.0000 Z
    Strength   :  0.0000
    D( 21) --> V(  2) amplitude =  0.9993

 Excited state   3: excitation energy (eV) =    5.6256
    Total energy for state   3:   -264.110143763814
    Multiplicity: Singlet
    Trans. Mom.:  0.0000 X   0.7885 Y   0.0000 Z
    Strength   :  0.0857
    D( 18) --> V(  2) amplitude = -0.4520
    D( 20) --> V(  1) amplitude =  0.8853

 Excited state   4: excitation energy (eV) =    5.6698
    Total energy for state   4:   -264.108517349692
    Multiplicity: Singlet
    Trans. Mom.:  0.0000 X   0.0000 Y   0.0000 Z
    Strength   :  0.0000
    D( 19) --> V(  1) amplitude =  0.9953

 Excited state   5: excitation energy (eV) =    6.4893
    Total energy for state   5:   -264.078402084124
    Multiplicity: Singlet
    Trans. Mom.:  0.0000 X   0.0000 Y   0.0000 Z
    Strength   :  0.0000
    D( 19) --> V(  2) amplitude =  0.9989

 Excited state   6: excitation energy (eV) =    6.9738
    Total energy for state   6:   -264.060596240616
    Multiplicity: Singlet
    Trans. Mom.:  0.5493 X   0.0000 Y   0.0000 Z
    Strength   :  0.0516
    D( 18) --> V(  1) amplitude =  0.5503
    D( 20) --> V(  2) amplitude =  0.8151

 Excited state   7: excitation energy (eV) =    7.7041
    Total energy for state   7:   -264.033759224448
    Multiplicity: Singlet
    Trans. Mom.:  0.0000 X   0.0000 Y   0.0000 Z
    Strength   :  0.0000
    D( 17) --> V(  1) amplitude =  0.9973

 Excited state   8: excitation energy (eV) =    8.4236
    Total energy for state   8:   -264.007316596779
    Multiplicity: Singlet
    Trans. Mom.:  0.0000 X   1.4759 Y   0.0000 Z
    Strength   :  0.4495
    D( 18) --> V(  2) amplitude =  0.8448
    D( 20) --> V(  1) amplitude =  0.3936
    D( 21) --> V(  5) amplitude = -0.2324

 Excited state   9: excitation energy (eV) =    8.4955
    Total energy for state   9:   -264.004675525064
    Multiplicity: Singlet
    Trans. Mom.: -1.5695 X   0.0000 Y   0.0000 Z
    Strength   :  0.5127
    D( 18) --> V(  1) amplitude =  0.7620
    D( 19) --> V(  3) amplitude =  0.2436
    D( 20) --> V(  2) amplitude = -0.5146

 Excited state  10: excitation energy (eV) =    8.6260
    Total energy for state  10:   -263.999878872025
    Multiplicity: Singlet
    Trans. Mom.:  0.0000 X   0.0000 Y  -0.2051 Z
    Strength   :  0.0089
    D( 17) --> V(  2) amplitude =  0.9968

 Excited state  11: excitation energy (eV) =    8.9547
    Total energy for state  11:   -263.987800856400
    Multiplicity: Singlet
    Trans. Mom.:  0.0000 X   0.0000 Y   0.0000 Z
    Strength   :  0.0000
    D( 21) --> V(  4) amplitude =  0.9822

 Excited state  12: excitation energy (eV) =    8.9888
    Total energy for state  12:   -263.986548302282
    Multiplicity: Singlet
    Trans. Mom.:  0.0000 X   0.0000 Y   0.0000 Z
    Strength   :  0.0000
    D( 16) --> V(  1) amplitude =  0.3841
    D( 21) --> V(  3) amplitude =  0.9160

 Excited state  13: excitation energy (eV) =    9.1422
    Total energy for state  13:   -263.980910591033
    Multiplicity: Singlet
    Trans. Mom.:  0.0000 X   0.0000 Y   0.0000 Z
    Strength   :  0.0000
    D( 15) --> V(  1) amplitude =  0.9943

 Excited state  14: excitation energy (eV) =    9.5025
    Total energy for state  14:   -263.967668445468
    Multiplicity: Singlet
    Trans. Mom.:  0.0000 X   0.0000 Y   0.0000 Z
    Strength   :  0.0000
    D( 20) --> V(  3) amplitude =  0.9886

 Excited state  15: excitation energy (eV) =    9.5814
    Total energy for state  15:   -263.964770203751
    Multiplicity: Singlet
    Trans. Mom.:  0.0000 X   1.3938 Y   0.0000 Z
    Strength   :  0.4560
    D( 21) --> V(  5) amplitude =  0.9665

 Excited state  16: excitation energy (eV) =    9.6075
    Total energy for state  16:   -263.963811920706
    Multiplicity: Singlet
    Trans. Mom.:  0.0000 X   0.0000 Y   0.0000 Z
    Strength   :  0.0000
    D( 16) --> V(  1) amplitude =  0.8444
    D( 18) --> V(  4) amplitude = -0.3159
    D( 21) --> V(  3) amplitude = -0.3729

 Excited state  17: excitation energy (eV) =    9.7779
    Total energy for state  17:   -263.957548546719
    Multiplicity: Singlet
    Trans. Mom.:  0.0000 X   0.0000 Y   0.0000 Z
    Strength   :  0.0000
    D( 16) --> V(  2) amplitude =  0.7395
    D( 20) --> V(  4) amplitude = -0.6709

 Excited state  18: excitation energy (eV) =    9.9206
    Total energy for state  18:   -263.952302825861
    Multiplicity: Singlet
    Trans. Mom.:  0.0000 X   0.0000 Y   0.0000 Z
    Strength   :  0.0000
    D( 15) --> V(  2) amplitude =  0.9785

 Excited state  19: excitation energy (eV) =    9.9799
    Total energy for state  19:   -263.950124132689
    Multiplicity: Singlet
    Trans. Mom.:  0.0000 X   0.0000 Y  -0.0270 Z
    Strength   :  0.0002
    D( 20) --> V(  5) amplitude =  0.9936

 Excited state  20: excitation energy (eV) =   10.1331
    Total energy for state  20:   -263.944494707579
    Multiplicity: Singlet
    Trans. Mom.:  0.2102 X   0.0000 Y   0.0000 Z
    Strength   :  0.0110
    D( 19) --> V(  3) amplitude = -0.3107
    D( 21) --> V(  6) amplitude =  0.9494

 Excited state  21: excitation energy (eV) =   10.4338
    Total energy for state  21:   -263.933444547298
    Multiplicity: Singlet
    Trans. Mom.:  0.0000 X   0.0000 Y   0.0000 Z
    Strength   :  0.0000
    D( 19) --> V(  5) amplitude =  0.2414
    D( 21) --> V(  7) amplitude =  0.9617

 Excited state  22: excitation energy (eV) =   10.4467
    Total energy for state  22:   -263.932971245200
    Multiplicity: Singlet
    Trans. Mom.:  0.0000 X   0.0000 Y   0.0000 Z
    Strength   :  0.0000
    D( 18) --> V(  4) amplitude = -0.2251
    D( 21) --> V(  8) amplitude =  0.9638

 Excited state  23: excitation energy (eV) =   10.6313
    Total energy for state  23:   -263.926184877605
    Multiplicity: Singlet
    Trans. Mom.:  0.0000 X   0.0000 Y  -0.2923 Z
    Strength   :  0.0223
    D( 19) --> V(  4) amplitude =  0.9856

 Excited state  24: excitation energy (eV) =   10.7161
    Total energy for state  24:   -263.923068555595
    Multiplicity: Singlet
    Trans. Mom.:  0.0000 X   0.0000 Y   0.0000 Z
    Strength   :  0.0000
    D( 14) --> V(  1) amplitude =  0.9260
    D( 18) --> V(  3) amplitude = -0.2346
    D( 20) --> V(  7) amplitude =  0.2551

 Excited state  25: excitation energy (eV) =   10.8088
    Total energy for state  25:   -263.919662605942
    Multiplicity: Singlet
    Trans. Mom.:  0.0000 X   0.0000 Y   0.0000 Z
    Strength   :  0.0000
    D( 20) --> V(  6) amplitude =  0.9913

 Excited state  26: excitation energy (eV) =   10.8444
    Total energy for state  26:   -263.918355402833
    Multiplicity: Singlet
    Trans. Mom.:  1.0013 X   0.0000 Y   0.0000 Z
    Strength   :  0.2664
    D( 19) --> V(  3) amplitude =  0.9114
    D( 21) --> V(  6) amplitude =  0.3038

 Excited state  27: excitation energy (eV) =   10.8761
    Total energy for state  27:   -263.917191231341
    Multiplicity: Singlet
    Trans. Mom.:  0.0000 X   0.0000 Y   0.0000 Z
    Strength   :  0.0000
    D( 13) --> V(  1) amplitude = -0.9307
    D( 20) --> V(  8) amplitude =  0.3266

 Excited state  28: excitation energy (eV) =   10.9088
    Total energy for state  28:   -263.915987627760
    Multiplicity: Singlet
    Trans. Mom.:  0.0000 X   0.0000 Y   0.0000 Z
    Strength   :  0.0000
    D( 14) --> V(  1) amplitude =  0.2325
    D( 18) --> V(  3) amplitude =  0.9683

 Excited state  29: excitation energy (eV) =   10.9807
    Total energy for state  29:   -263.913345077432
    Multiplicity: Singlet
    Trans. Mom.:  0.0000 X   0.0000 Y   0.0000 Z
    Strength   :  0.0000
    D( 16) --> V(  2) amplitude = -0.4470
    D( 19) --> V(  5) amplitude =  0.6540
    D( 20) --> V(  4) amplitude = -0.5267
    D( 21) --> V(  7) amplitude = -0.2474

 Excited state  30: excitation energy (eV) =   11.1168
    Total energy for state  30:   -263.908344621073
    Multiplicity: Singlet
    Trans. Mom.:  0.0000 X   0.0000 Y   0.0000 Z
    Strength   :  0.0000
    D( 13) --> V(  1) amplitude = -0.2948
    D( 14) --> V(  2) amplitude =  0.2524
    D( 20) --> V(  8) amplitude = -0.9172

 ---------------------------------------------------

                    Orbital Energies (a.u.)
 --------------------------------------------------------------

 Alpha MOs
 -- Occupied --
-14.356 -14.356 -10.238 -10.238 -10.237 -10.237  -0.981  -0.908
 -0.781  -0.665  -0.657  -0.529  -0.515  -0.494  -0.443  -0.425
 -0.391  -0.329  -0.312  -0.279  -0.254

          Ground-State Mulliken Net Atomic Charges

     Atom                 Charge (a.u.)
  ----------------------------------------
      1 C                     0.035297
      2 C                     0.035297
      3 N                    -0.378549
      4 N                    -0.378549
      5 C                     0.035297
      6 C                     0.035297
      7 H                     0.153978
      8 H                     0.153978
      9 H                     0.153978
     10 H                     0.153978
  ----------------------------------------
  Sum of atomic charges =     0.000000

                    Cartesian Multipole Moments
 -----------------------------------------------------------------
    Charge (ESU x 10^10)
                 0.0000
    Dipole Moment (Debye)
         X       0.0000      Y       0.0000      Z       0.0000
       Tot       0.0000
    Quadrupole Moments (Debye-Ang)
        XX     -40.4748     XY       0.0000     YY     -26.6520
        XZ       0.0000     YZ       0.0000     ZZ     -35.2028

 Total job time:  41.21s(wall), 75.52s(cpu)
        *  Thank you very much for using Q-Chem.  Have a nice day.  *
