 Q-Chem 4.3, Q-Chem, Inc., Pleasanton, CA (2015)
 Q-Chem 4.3.0 for Intel X86 Linux

User input:
--------------------------------------------------------------
$comment
XAS calculation for the 2b valence excited for water using cvs-adc(2)-x + 6-311+G* basis set
job 1 - determination of HF orbitals
$end

$molecule
0 1
C    -0.696126    -1.136419     0.000000
C     0.696126    -1.136419     0.000000
N    -1.417532     0.000000     0.000000
N     1.417532     0.000000     0.000000
C     0.696126     1.136419     0.000000
C    -0.696126     1.136419     0.000000
H     1.250625     2.067160     0.000000
H    -1.250625     2.067160     0.000000
H     1.250625    -2.067160     0.000000
H    -1.250625    -2.067160     0.000000
$end

$rem
jobtype      sp
sym_ignore true
exchange     hf
basis        6-31G*
unrestricted true
$end

--------------------------------------------------------------

    8    -262.6792999555      3.90E-06 Convergence criterion met
 Total energy in the final basis set = -262.6792999555
 Total job time:  3.14s(wall), 12.03s(cpu)
        *  Thank you very much for using Q-Chem.  Have a nice day.  *
 Q-Chem 4.3, Q-Chem, Inc., Pleasanton, CA (2015)
 Q-Chem 4.3.0 for Intel X86 Linux

User input:
--------------------------------------------------------------

$comment
job2 - MOM calculation for 2b excited state wavefuntion
$end

$molecule
read
$end

$rem
JOBTYPE           SP
EXCHANGE          HF
BASIS             6-31G*
SCF_GUESS         READ
MOM_START         1
UNRESTRICTED      TRUE
sym_ignore true
$end

$swap_occupied_virtual
beta   20  23	!beta electron in RHF HOMO-1 moved to RHF LUMO+1
$end

--------------------------------------------------------------

    8    -262.4526947544      5.83E-06 Convergence criterion met
 Total energy in the final basis set = -262.4526947544
 Total job time:  2.55s(wall), 14.07s(cpu)
        *  Thank you very much for using Q-Chem.  Have a nice day.  *
 Q-Chem 4.3, Q-Chem, Inc., Pleasanton, CA (2015)
 Q-Chem 4.3.0 for Intel X86 Linux

User input:
--------------------------------------------------------------

$comment
job3 - cvs-adc(2)-x calculation with mom to prevent collapse to ground state
$end

$molecule
read
$end

$rem
mem_total 3000
mem_static 1500
sym_ignore true
mom_start 1
scf_guess read
method cvs-adc(2)-x
ADC_DAVIDSON_MAXSUBSPACE 300   !subspace is n times number of excited states to be calculated, default=5
ADC_DAVIDSON_CONV 6	       !converge to 10^-n, default n=6
ADC_DAVIDSON_MAXITER 60        !Controls the maximum number of iterations of the Davidson procedure. Default = 60
basis 6-31G*
ee_singlets 20
cc_rest_occ 1                  !only excitations from the 1st orbital (N 1s)
unrestricted  true
max_scf_cycles 200
$end
--------------------------------------------------------------

             Standard Nuclear Orientation (Angstroms)
    I     Atom           X                Y                Z
 ----------------------------------------------------------------
    1      C      -0.6961260000    -1.1364190000     0.0000000000
    2      C       0.6961260000    -1.1364190000     0.0000000000
    3      N      -1.4175320000     0.0000000000     0.0000000000
    4      N       1.4175320000     0.0000000000     0.0000000000
    5      C       0.6961260000     1.1364190000     0.0000000000
    6      C      -0.6961260000     1.1364190000     0.0000000000
    7      H       1.2506250000     2.0671600000     0.0000000000
    8      H      -1.2506250000     2.0671600000     0.0000000000
    9      H       1.2506250000    -2.0671600000     0.0000000000
   10      H      -1.2506250000    -2.0671600000     0.0000000000
 ----------------------------------------------------------------

    9    -262.4527064721      3.70E-09 Convergence criterion met
 Total energy in the final basis set = -262.4527064721
  Term symbol:  2 (-) A                                     R^2 =  1.19150e-13
  Excitation energy:                                             405.920151 eV
  Term symbol:  3 (-) A                                     R^2 =  3.35056e-13
  Excitation energy:                                             406.786504 eV
  Term symbol:  4 (-) A                                     R^2 =  2.91810e-13
  Excitation energy:                                             407.370968 eV
  Term symbol:  5 (-) A                                     R^2 =  3.17097e-13
  Excitation energy:                                             409.553891 eV
  Term symbol:  6 (-) A                                     R^2 =  2.55906e-13
  Excitation energy:                                             409.960634 eV
  Term symbol:  7 (-) A                                     R^2 =  2.50693e-13
  Excitation energy:                                             410.645062 eV
  Term symbol:  8 (-) A                                     R^2 =  4.18033e-13
  Excitation energy:                                             411.760921 eV
  Term symbol:  9 (-) A                                     R^2 =  4.03218e-13
  Excitation energy:                                             412.121027 eV
  Term symbol:  10 (-) A                                    R^2 =  3.57586e-13
  Excitation energy:                                             412.354103 eV
  Excited state 10 (A)                                             [converged]
  Term symbol:  11 (-) A                                    R^2 =  4.36508e-13
  Excitation energy:                                             413.538140 eV
  Excited state 11 (A)                                             [converged]
  Term symbol:  12 (-) A                                    R^2 =  3.58216e-13
  Excitation energy:                                             413.626564 eV
  Excited state 12 (A)                                             [converged]
  Term symbol:  13 (-) A                                    R^2 =  9.72337e-13
  Excitation energy:                                             414.101505 eV
  Excited state 13 (A)                                             [converged]
  Term symbol:  14 (-) A                                    R^2 =  4.87229e-08
  Excitation energy:                                             414.679504 eV
  Excited state 14 (A)                                             [converged]
  Term symbol:  15 (-) A                                    R^2 =  1.26890e-12
  Excitation energy:                                             414.775380 eV
  Excited state 15 (A)                                             [converged]
  Term symbol:  16 (-) A                                    R^2 =  1.81252e-10
  Excitation energy:                                             414.863742 eV
  Excited state 16 (A)                                             [converged]
  Term symbol:  17 (-) A                                    R^2 =  1.96026e-09
  Excitation energy:                                             415.195517 eV
  Excited state 17 (A)                                             [converged]
  Term symbol:  18 (-) A                                    R^2 =  7.47290e-13
  Excitation energy:                                             415.459603 eV
  Excited state 18 (A)                                             [converged]
  Term symbol:  19 (-) A                                    R^2 =  6.21922e-09
  Excitation energy:                                             415.551990 eV
  Excited state 19 (A)                                             [converged]
  Term symbol:  20 (-) A                                    R^2 =  4.76280e-10
  Excitation energy:                                             415.581999 eV
  Excited state 20 (A)                                             [converged]
  Term symbol:  21 (-) A                                    R^2 =  6.54340e-07
  Excitation energy:                                             415.977838 eV

                    Orbital Energies (a.u.)
 --------------------------------------------------------------

 Alpha MOs
 -- Occupied --
-15.673 -15.673 -11.259 -11.259 -11.258 -11.258  -1.323  -1.254
 -1.034  -0.915  -0.879  -0.737  -0.713  -0.665  -0.600  -0.592
 -0.582  -0.552  -0.495  -0.476  -0.293

 Beta MOs
 -- Occupied --
-15.646 -15.646 -11.269 -11.269 -11.268 -11.268  -1.295  -1.203
 -1.055  -0.897  -0.870  -0.698  -0.681  -0.663  -0.595  -0.581
 -0.541  -0.454  -0.429  -0.365  -0.179

          Ground-State Mulliken Net Atomic Charges

     Atom                 Charge (a.u.)    Spin (a.u.)
  --------------------------------------------------------
      1 C                    -0.070621      -0.468966
      2 C                    -0.070621      -0.468966
      3 N                    -0.317767       0.785655
      4 N                    -0.317767       0.785655
      5 C                    -0.070621      -0.468966
      6 C                    -0.070621      -0.468966
      7 H                     0.229504       0.076139
      8 H                     0.229504       0.076139
      9 H                     0.229504       0.076139
     10 H                     0.229504       0.076139
  --------------------------------------------------------
  Sum of atomic charges =     0.000000

                    Cartesian Multipole Moments
 -----------------------------------------------------------------
    Charge (ESU x 10^10)
                 0.0000
    Dipole Moment (Debye)
         X       0.0000      Y       0.0000      Z       0.0000
       Tot       0.0000
    Quadrupole Moments (Debye-Ang)
        XX     -36.5129     XY       0.0000     YY     -27.8190
        XZ       0.0000     YZ       0.0000     ZZ     -37.9448

 Total job time:  9516.91s(wall), 17056.48s(cpu)
        *  Thank you very much for using Q-Chem.  Have a nice day.  *
