 Q-Chem 4.3, Q-Chem, Inc., Pleasanton, CA (2015)
 Q-Chem 4.3.0 for Intel X86 Linux

User input:
--------------------------------------------------------------
$comment
job3 - cvs-adc(2)-x calculation with mom to prevent collapse to ground state
$end

$molecule
0 1
C    -0.696126    -1.136419     0.000000
C     0.696126    -1.136419     0.000000
N    -1.417532     0.000000     0.000000
N     1.417532     0.000000     0.000000
C     0.696126     1.136419     0.000000
C    -0.696126     1.136419     0.000000
H     1.250625     2.067160     0.000000
H    -1.250625     2.067160     0.000000
H     1.250625    -2.067160     0.000000
H    -1.250625    -2.067160     0.000000
$end

$rem
mem_total 3000
mem_static 1500
sym_ignore true
method cvs-adc(2)-x
basis 6-311+G*
ee_singlets 30
cc_rest_occ 1                  !only excitations from the 1st orbital (N 1s)
unrestricted  true
max_scf_cycles 200
$end

--------------------------------------------------------------

             Standard Nuclear Orientation (Angstroms)
    I     Atom           X                Y                Z
 ----------------------------------------------------------------
    1      C      -0.6961260000    -1.1364190000     0.0000000000
    2      C       0.6961260000    -1.1364190000     0.0000000000
    3      N      -1.4175320000     0.0000000000     0.0000000000
    4      N       1.4175320000     0.0000000000     0.0000000000
    5      C       0.6961260000     1.1364190000     0.0000000000
    6      C      -0.6961260000     1.1364190000     0.0000000000
    7      H       1.2506250000     2.0671600000     0.0000000000
    8      H      -1.2506250000     2.0671600000     0.0000000000
    9      H       1.2506250000    -2.0671600000     0.0000000000
   10      H      -1.2506250000    -2.0671600000     0.0000000000
 ----------------------------------------------------------------

   12    -262.7338697770      3.88E-09 Convergence criterion met
 Total energy in the final basis set = -262.7338697770
  Term symbol:  2 (-) A                                     R^2 =  1.29801e-12
  Excitation energy:                                             407.280456 eV
  Term symbol:  3 (-) A                                     R^2 =  1.20406e-12
  Excitation energy:                                             408.014025 eV
  Term symbol:  4 (-) A                                     R^2 =  5.62433e-12
  Excitation energy:                                             409.463605 eV
  Term symbol:  5 (-) A                                     R^2 =  5.35527e-12
  Excitation energy:                                             409.563575 eV
  Term symbol:  6 (-) A                                     R^2 =  2.35453e-12
  Excitation energy:                                             411.499253 eV
  Term symbol:  7 (-) A                                     R^2 =  2.30168e-12
  Excitation energy:                                             411.534492 eV
  Term symbol:  8 (-) A                                     R^2 =  2.62241e-12
  Excitation energy:                                             412.202292 eV
  Term symbol:  9 (-) A                                     R^2 =  2.54591e-12
  Excitation energy:                                             412.207048 eV
  Term symbol:  10 (-) A                                    R^2 =  1.49605e-12
  Excitation energy:                                             412.605820 eV
  Excited state 10 (A)                                             [converged]
  Term symbol:  11 (-) A                                    R^2 =  7.77830e-12
  Excitation energy:                                             412.629988 eV
  Excited state 11 (A)                                             [converged]
  Term symbol:  12 (-) A                                    R^2 =  3.03586e-12
  Excitation energy:                                             412.633341 eV
  Excited state 12 (A)                                             [converged]
  Term symbol:  13 (-) A                                    R^2 =  7.77214e-12
  Excitation energy:                                             412.652952 eV
  Excited state 13 (A)                                             [converged]
  Term symbol:  14 (-) A                                    R^2 =  3.34986e-12
  Excitation energy:                                             412.729646 eV
  Excited state 14 (A)                                             [converged]
  Term symbol:  15 (-) A                                    R^2 =  2.30503e-12
  Excitation energy:                                             412.757036 eV
  Excited state 15 (A)                                             [converged]
  Term symbol:  16 (-) A                                    R^2 =  2.18253e-12
  Excitation energy:                                             412.766582 eV
  Excited state 16 (A)                                             [converged]
  Term symbol:  17 (-) A                                    R^2 =  1.66618e-12
  Excitation energy:                                             412.972004 eV
  Excited state 17 (A)                                             [converged]
  Excitation energy:                                             413.130561 eV
  Excited state 18 (A)                                             [converged]
  Term symbol:  19 (-) A                                    R^2 =  1.53594e-11
  Excitation energy:                                             413.133954 eV
  Excited state 19 (A)                                             [converged]
  Term symbol:  20 (-) A                                    R^2 =  8.59868e-12
  Excitation energy:                                             413.486944 eV
  Excited state 20 (A)                                             [converged]
  Term symbol:  21 (-) A                                    R^2 =  5.30438e-12
  Excitation energy:                                             413.534712 eV
  Excited state 21 (A)                                             [converged]
  Term symbol:  22 (-) A                                    R^2 =  8.46016e-12
  Excitation energy:                                             413.758874 eV
  Excited state 22 (A)                                             [converged]
  Term symbol:  23 (-) A                                    R^2 =  8.53273e-12
  Excitation energy:                                             413.765733 eV
  Excited state 23 (A)                                             [converged]
  Term symbol:  24 (-) A                                    R^2 =  2.86232e-12
  Excitation energy:                                             414.212475 eV
  Excited state 24 (A)                                             [converged]
  Term symbol:  25 (-) A                                    R^2 =  2.78576e-12
  Excitation energy:                                             414.218351 eV
  Excited state 25 (A)                                             [converged]
  Term symbol:  26 (-) A                                    R^2 =  2.12925e-10
  Excitation energy:                                             414.323126 eV
  Excited state 26 (A)                                             [converged]
  Term symbol:  27 (-) A                                    R^2 =  1.26486e-08
  Excitation energy:                                             414.330384 eV
  Excited state 27 (A)                                             [converged]
  Term symbol:  28 (-) A                                    R^2 =  6.29045e-12
  Excitation energy:                                             414.369912 eV
  Excited state 28 (A)                                             [converged]
  Term symbol:  29 (-) A                                    R^2 =  9.90269e-12
  Excitation energy:                                             414.399354 eV
  Excited state 29 (A)                                             [converged]
  Term symbol:  30 (-) A                                    R^2 =  1.33875e-09
  Excitation energy:                                             415.063731 eV
  Excited state 30 (A)                                         [not converged]
  Term symbol:  31 (-) A                                    R^2 =  1.13476e-04
  Excitation energy:                                             415.072247 eV

                    Orbital Energies (a.u.)
 --------------------------------------------------------------

 Alpha MOs
 -- Occupied --
-15.601 -15.601 -11.292 -11.292 -11.291 -11.291  -1.309  -1.220
 -1.059  -0.909  -0.890  -0.731  -0.706  -0.682  -0.617  -0.574
 -0.554  -0.504  -0.435  -0.419  -0.363

 Beta MOs
 -- Occupied --
-15.601 -15.601 -11.292 -11.292 -11.291 -11.291  -1.309  -1.220
 -1.059  -0.909  -0.890  -0.731  -0.706  -0.682  -0.617  -0.574
 -0.554  -0.504  -0.435  -0.419  -0.363

          Ground-State Mulliken Net Atomic Charges

     Atom                 Charge (a.u.)    Spin (a.u.)
  --------------------------------------------------------
      1 C                    -0.228329       0.000000
      2 C                    -0.228329       0.000000
      3 N                    -0.049019       0.000000
      4 N                    -0.049019       0.000000
      5 C                    -0.228329       0.000000
      6 C                    -0.228329       0.000000
      7 H                     0.252838       0.000000
      8 H                     0.252838       0.000000
      9 H                     0.252838       0.000000
     10 H                     0.252838       0.000000
  --------------------------------------------------------
  Sum of atomic charges =     0.000000

                    Cartesian Multipole Moments
 -----------------------------------------------------------------
    Charge (ESU x 10^10)
                 0.0000
    Dipole Moment (Debye)
         X       0.0000      Y       0.0000      Z       0.0000
       Tot       0.0000
    Quadrupole Moments (Debye-Ang)
        XX     -42.2923     XY       0.0000     YY     -26.3616
        XZ       0.0000     YZ       0.0000     ZZ     -37.2623

 Total job time:  29286.98s(wall), 63122.47s(cpu)
        *  Thank you very much for using Q-Chem.  Have a nice day.  *
