 Q-Chem 4.3, Q-Chem, Inc., Pleasanton, CA (2015)
 Q-Chem 4.3.0 for Intel X86 Linux

User input:
--------------------------------------------------------------
$comment
XAS calculation for the 2b valence excited for water using cvs-adc(2)-x + 6-311+G* basis set
job 1 - determination of HF orbitals
$end

$molecule
0 1
C    -0.696126    -1.136419     0.000000
C     0.696126    -1.136419     0.000000
N    -1.417532     0.000000     0.000000
N     1.417532     0.000000     0.000000
C     0.696126     1.136419     0.000000
C    -0.696126     1.136419     0.000000
H     1.250625     2.067160     0.000000
H    -1.250625     2.067160     0.000000
H     1.250625    -2.067160     0.000000
H    -1.250625    -2.067160     0.000000
$end

$rem
jobtype      sp
sym_ignore true
exchange     hf
basis        6-31G*
unrestricted true
$end

--------------------------------------------------------------

    8    -262.6792999555      3.90E-06 Convergence criterion met
 Total energy in the final basis set = -262.6792999555
 Total job time:  2.40s(wall), 13.73s(cpu)
        *  Thank you very much for using Q-Chem.  Have a nice day.  *
 Q-Chem 4.3, Q-Chem, Inc., Pleasanton, CA (2015)
 Q-Chem 4.3.0 for Intel X86 Linux

User input:
--------------------------------------------------------------

$comment
job2 - MOM calculation for 2b excited state wavefuntion
$end

$molecule
read
$end

$rem
JOBTYPE           SP
EXCHANGE          HF
BASIS             6-31G*
SCF_GUESS         READ
MOM_START         1
UNRESTRICTED      TRUE
sym_ignore true
$end

$swap_occupied_virtual
beta   20  22	!beta electron in RHF HOMO-1 moved to RHF LUMO
$end

--------------------------------------------------------------

    8    -262.5039510943      3.38E-06 Convergence criterion met
 Total energy in the final basis set = -262.5039510943
 Total job time:  2.55s(wall), 11.45s(cpu)
        *  Thank you very much for using Q-Chem.  Have a nice day.  *
 Q-Chem 4.3, Q-Chem, Inc., Pleasanton, CA (2015)
 Q-Chem 4.3.0 for Intel X86 Linux

User input:
--------------------------------------------------------------

$comment
job3 - cvs-adc(2)-x calculation with mom to prevent collapse to ground state
$end

$molecule
read
$end

$rem
mem_total 3000
mem_static 1500
sym_ignore true
mom_start 1
scf_guess read
method cvs-adc(2)-x
basis 6-31G*
ee_singlets 20
cc_rest_occ 1                  !only excitations from the 1st orbital (N 1s)
unrestricted  true
max_scf_cycles 200
$end
--------------------------------------------------------------

             Standard Nuclear Orientation (Angstroms)
    I     Atom           X                Y                Z
 ----------------------------------------------------------------
    1      C      -0.6961260000    -1.1364190000     0.0000000000
    2      C       0.6961260000    -1.1364190000     0.0000000000
    3      N      -1.4175320000     0.0000000000     0.0000000000
    4      N       1.4175320000     0.0000000000     0.0000000000
    5      C       0.6961260000     1.1364190000     0.0000000000
    6      C      -0.6961260000     1.1364190000     0.0000000000
    7      H       1.2506250000     2.0671600000     0.0000000000
    8      H      -1.2506250000     2.0671600000     0.0000000000
    9      H       1.2506250000    -2.0671600000     0.0000000000
   10      H      -1.2506250000    -2.0671600000     0.0000000000
 ----------------------------------------------------------------

    7    -262.5039514808      4.02E-09 Convergence criterion met
 Total energy in the final basis set = -262.5039514808
  Term symbol:  2 (-) A                                     R^2 =  1.58050e-13
  Excitation energy:                                             404.921551 eV
  Term symbol:  3 (-) A                                     R^2 =  5.04942e-13
  Excitation energy:                                             408.588756 eV
  Term symbol:  4 (-) A                                     R^2 =  4.19654e-13
  Excitation energy:                                             409.029837 eV
  Term symbol:  5 (-) A                                     R^2 =  1.24800e-13
  Excitation energy:                                             410.605132 eV
  Term symbol:  6 (-) A                                     R^2 =  3.55630e-13
  Excitation energy:                                             410.929981 eV
  Term symbol:  7 (-) A                                     R^2 =  1.15776e-11
  Excitation energy:                                             411.633940 eV
  Term symbol:  8 (-) A                                     R^2 =  5.35460e-13
  Excitation energy:                                             411.826113 eV
  Term symbol:  9 (-) A                                     R^2 =  1.13035e-11
  Excitation energy:                                             411.940593 eV
  Term symbol:  10 (-) A                                    R^2 =  4.23105e-11
  Excitation energy:                                             412.743001 eV
  Excited state 10 (A)                                             [converged]
  Term symbol:  11 (-) A                                    R^2 =  8.42783e-11
  Excitation energy:                                             412.857899 eV
  Excited state 11 (A)                                             [converged]
  Term symbol:  12 (-) A                                    R^2 =  4.05825e-11
  Excitation energy:                                             412.940727 eV
  Excited state 12 (A)                                             [converged]
  Term symbol:  13 (-) A                                    R^2 =  4.59983e-11
  Excitation energy:                                             413.217548 eV
  Excited state 13 (A)                                             [converged]
  Term symbol:  14 (-) A                                    R^2 =  6.57025e-09
  Excitation energy:                                             413.830994 eV
  Excited state 14 (A)                                             [converged]
  Term symbol:  15 (-) A                                    R^2 =  2.57459e-10
  Excitation energy:                                             414.093706 eV
  Excited state 15 (A)                                             [converged]
  Term symbol:  16 (-) A                                    R^2 =  5.64448e-09
  Excitation energy:                                             414.282225 eV
  Excited state 16 (A)                                             [converged]
  Term symbol:  17 (-) A                                    R^2 =  6.43871e-07
  Excitation energy:                                             415.064412 eV
  Excited state 17 (A)                                             [converged]
  Term symbol:  18 (-) A                                    R^2 =  4.31242e-09
  Excitation energy:                                             415.102069 eV
  Excited state 18 (A)                                             [converged]
  Term symbol:  19 (-) A                                    R^2 =  1.82544e-08
  Excitation energy:                                             415.273615 eV
  Excited state 19 (A)                                             [converged]
  Term symbol:  20 (-) A                                    R^2 =  1.24573e-07
  Excitation energy:                                             415.519218 eV
  Excited state 20 (A)                                             [converged]
  Term symbol:  21 (-) A                                    R^2 =  1.14343e-07
  Excitation energy:                                             415.796187 eV

                    Orbital Energies (a.u.)
 --------------------------------------------------------------

 Alpha MOs
 -- Occupied --
-15.594 -15.594 -11.289 -11.289 -11.288 -11.288  -1.293  -1.206
 -1.050  -0.902  -0.886  -0.734  -0.701  -0.679  -0.612  -0.549
 -0.546  -0.539  -0.446  -0.398  -0.348

 Beta MOs
 -- Occupied --
-15.596 -15.596 -11.288 -11.288 -11.287 -11.287  -1.295  -1.210
 -1.045  -0.888  -0.875  -0.700  -0.676  -0.669  -0.613  -0.591
 -0.543  -0.521  -0.391  -0.348  -0.230

          Ground-State Mulliken Net Atomic Charges

     Atom                 Charge (a.u.)    Spin (a.u.)
  --------------------------------------------------------
      1 C                    -0.004266      -0.011093
      2 C                    -0.004266      -0.011093
      3 N                    -0.463067      -0.052251
      4 N                    -0.463067      -0.052251
      5 C                    -0.004266      -0.011093
      6 C                    -0.004266      -0.011093
      7 H                     0.235799       0.037219
      8 H                     0.235799       0.037219
      9 H                     0.235799       0.037219
     10 H                     0.235799       0.037219
  --------------------------------------------------------
  Sum of atomic charges =     0.000000

                    Cartesian Multipole Moments
 -----------------------------------------------------------------
    Charge (ESU x 10^10)
                 0.0000
    Dipole Moment (Debye)
         X       0.0000      Y       0.0000      Z       0.0000
       Tot       0.0000
    Quadrupole Moments (Debye-Ang)
        XX     -37.8062     XY       0.0000     YY     -25.8350
        XZ       0.0000     YZ       0.0000     ZZ     -37.7918

 Total job time:  3757.42s(wall), 9307.13s(cpu)
        *  Thank you very much for using Q-Chem.  Have a nice day.  *
