 Q-Chem 4.3, Q-Chem, Inc., Pleasanton, CA (2015)
 Q-Chem 4.3.0 for Intel X86 Linux

User input:
--------------------------------------------------------------
$comment
job3 - cvs-adc(2)-x calculation with mom to prevent collapse to ground state
$end

$molecule
0 3
C    -0.696126    -1.136419     0.000000
C     0.696126    -1.136419     0.000000
N    -1.417532     0.000000     0.000000
N     1.417532     0.000000     0.000000
C     0.696126     1.136419     0.000000
C    -0.696126     1.136419     0.000000
H     1.250625     2.067160     0.000000
H    -1.250625     2.067160     0.000000
H     1.250625    -2.067160     0.000000
H    -1.250625    -2.067160     0.000000
$end

$rem
mem_total 3000
mem_static 1500
sym_ignore true
method cvs-adc(2)-x
basis 6-31G*
ee_singlets 20
cc_rest_occ 1                  !only excitations from the 1st orbital (N 1s)
unrestricted  true
max_scf_cycles 200
$end

--------------------------------------------------------------

             Standard Nuclear Orientation (Angstroms)
    I     Atom           X                Y                Z
 ----------------------------------------------------------------
    1      C      -0.6961260000    -1.1364190000     0.0000000000
    2      C       0.6961260000    -1.1364190000     0.0000000000
    3      N      -1.4175320000     0.0000000000     0.0000000000
    4      N       1.4175320000     0.0000000000     0.0000000000
    5      C       0.6961260000     1.1364190000     0.0000000000
    6      C      -0.6961260000     1.1364190000     0.0000000000
    7      H       1.2506250000     2.0671600000     0.0000000000
    8      H      -1.2506250000     2.0671600000     0.0000000000
    9      H       1.2506250000    -2.0671600000     0.0000000000
   10      H      -1.2506250000    -2.0671600000     0.0000000000
 ----------------------------------------------------------------

   14    -262.5237875136      5.82E-09 Convergence criterion met
 Total energy in the final basis set = -262.5237875136
  Term symbol:  2 (-) A                                     R^2 =  5.85736e-13
  Excitation energy:                                             404.886260 eV
  Term symbol:  3 (-) A                                     R^2 =  2.55608e-13
  Excitation energy:                                             408.990905 eV
  Term symbol:  4 (-) A                                     R^2 =  5.45836e-13
  Excitation energy:                                             410.619882 eV
  Term symbol:  5 (-) A                                     R^2 =  3.68773e-13
  Excitation energy:                                             411.216845 eV
  Term symbol:  6 (-) A                                     R^2 =  4.83068e-13
  Excitation energy:                                             412.448600 eV
  Term symbol:  7 (-) A                                     R^2 =  4.32916e-13
  Excitation energy:                                             412.955259 eV
  Term symbol:  8 (-) A                                     R^2 =  4.46395e-13
  Excitation energy:                                             413.001686 eV
  Term symbol:  9 (-) A                                     R^2 =  2.34995e-13
  Excitation energy:                                             413.381574 eV
  Term symbol:  10 (-) A                                    R^2 =  1.22536e-12
  Excitation energy:                                             414.004180 eV
  Excited state 10 (A)                                             [converged]
  Term symbol:  11 (-) A                                    R^2 =  5.43189e-13
  Excitation energy:                                             414.247486 eV
  Excited state 11 (A)                                             [converged]
  Term symbol:  12 (-) A                                    R^2 =  1.20047e-12
  Excitation energy:                                             414.500740 eV
  Excited state 12 (A)                                             [converged]
  Term symbol:  13 (-) A                                    R^2 =  2.01163e-12
  Excitation energy:                                             415.065342 eV
  Excited state 13 (A)                                             [converged]
  Term symbol:  14 (-) A                                    R^2 =  4.57240e-12
  Excitation energy:                                             415.375224 eV
  Excited state 14 (A)                                             [converged]
  Term symbol:  15 (-) A                                    R^2 =  1.31947e-10
  Excitation energy:                                             415.715111 eV
  Excited state 15 (A)                                             [converged]
  Term symbol:  16 (-) A                                    R^2 =  8.56999e-12
  Excitation energy:                                             415.797466 eV
  Excited state 16 (A)                                             [converged]
  Term symbol:  17 (-) A                                    R^2 =  9.99915e-11
  Excitation energy:                                             415.822519 eV
  Excited state 17 (A)                                         [not converged]
  Term symbol:  18 (-) A                                    R^2 =  8.18799e-04
  Excitation energy:                                             416.195982 eV
  Excited state 18 (A)                                             [converged]
  Term symbol:  19 (-) A                                    R^2 =  1.77844e-10
  Excitation energy:                                             416.203820 eV
  Excited state 19 (A)                                             [converged]
  Term symbol:  20 (-) A                                    R^2 =  1.20735e-07
  Excitation energy:                                             416.409520 eV
  Excited state 20 (A)                                             [converged]
  Term symbol:  21 (-) A                                    R^2 =  2.90827e-07
  Excitation energy:                                             416.417916 eV

                    Orbital Energies (a.u.)
 --------------------------------------------------------------

 Alpha MOs
 -- Occupied --
-15.614 -15.614 -11.286 -11.286 -11.285 -11.285  -1.322  -1.248
 -1.057  -0.934  -0.887  -0.739  -0.710  -0.683  -0.624  -0.610
 -0.568  -0.554  -0.543  -0.465  -0.388  -0.247

 Beta MOs
 -- Occupied --
-15.579 -15.579 -11.285 -11.285 -11.284 -11.284  -1.269  -1.172
 -1.035  -0.874  -0.854  -0.694  -0.667  -0.663  -0.590  -0.540
 -0.537  -0.384  -0.349  -0.320

          Ground-State Mulliken Net Atomic Charges

     Atom                 Charge (a.u.)    Spin (a.u.)
  --------------------------------------------------------
      1 C                    -0.015912       0.016408
      2 C                    -0.015912       0.016408
      3 N                    -0.434577       0.920516
      4 N                    -0.434577       0.920516
      5 C                    -0.015912       0.016408
      6 C                    -0.015912       0.016408
      7 H                     0.233201       0.023334
      8 H                     0.233201       0.023334
      9 H                     0.233201       0.023334
     10 H                     0.233201       0.023334
  --------------------------------------------------------
  Sum of atomic charges =     0.000000

                    Cartesian Multipole Moments
 -----------------------------------------------------------------
    Charge (ESU x 10^10)
                 0.0000
    Dipole Moment (Debye)
         X       0.0000      Y       0.0000      Z       0.0000
       Tot       0.0000
    Quadrupole Moments (Debye-Ang)
        XX     -37.3855     XY       0.0000     YY     -26.2312
        XZ       0.0000     YZ       0.0000     ZZ     -37.7847

 Total job time:  3334.54s(wall), 9058.46s(cpu)
        *  Thank you very much for using Q-Chem.  Have a nice day.  *
