 Q-Chem 4.3, Q-Chem, Inc., Pleasanton, CA (2015)
 Q-Chem 4.3.0 for Intel X86 Linux

User input:
--------------------------------------------------------------
$comment
XAS calculation for the 2b valence excited for water using cvs-adc(2)-x + 6-311+G* basis set
job 1 - determination of HF orbitals
$end

$molecule
0 1
C    -0.696126    -1.136419     0.000000
C     0.696126    -1.136419     0.000000
N    -1.417532     0.000000     0.000000
N     1.417532     0.000000     0.000000
C     0.696126     1.136419     0.000000
C    -0.696126     1.136419     0.000000
H     1.250625     2.067160     0.000000
H    -1.250625     2.067160     0.000000
H     1.250625    -2.067160     0.000000
H    -1.250625    -2.067160     0.000000
$end

$rem
jobtype      sp
sym_ignore true
exchange     hf
basis        6-311+G*
unrestricted true
$end

--------------------------------------------------------------

    8    -262.7338701911      3.16E-06 Convergence criterion met
 Total energy in the final basis set = -262.7338701911
 Total job time:  4.94s(wall), 13.71s(cpu)
        *  Thank you very much for using Q-Chem.  Have a nice day.  *
 Q-Chem 4.3, Q-Chem, Inc., Pleasanton, CA (2015)
 Q-Chem 4.3.0 for Intel X86 Linux

User input:
--------------------------------------------------------------

$comment
job2 - MOM calculation for 2b excited state wavefuntion
$end

$molecule
read
$end

$rem
JOBTYPE           SP
EXCHANGE          HF
BASIS             6-311+G*
SCF_GUESS         READ
MOM_START         1
UNRESTRICTED      TRUE
sym_ignore true
$end

$swap_occupied_virtual
beta   21  22	!beta electron in RHF HOMO-1 moved to RHF LUMO
$end

--------------------------------------------------------------

    8    -262.4996241368      4.50E-06 Convergence criterion met
 Total energy in the final basis set = -262.4996241368
 Total job time:  5.26s(wall), 14.66s(cpu)
        *  Thank you very much for using Q-Chem.  Have a nice day.  *
 Q-Chem 4.3, Q-Chem, Inc., Pleasanton, CA (2015)
 Q-Chem 4.3.0 for Intel X86 Linux

User input:
--------------------------------------------------------------

$comment
job3 - cvs-adc(2)-x calculation with mom to prevent collapse to ground state
$end

$molecule
read
$end

$rem
mem_total 3000
mem_static 1500
sym_ignore true
mom_start 1
scf_guess read
method cvs-adc(2)-x
basis 6-311+G*
ee_singlets 30
cc_rest_occ 1                  !only excitations from the 1st orbital (N 1s)
unrestricted  true
max_scf_cycles 200
$end
--------------------------------------------------------------

             Standard Nuclear Orientation (Angstroms)
    I     Atom           X                Y                Z
 ----------------------------------------------------------------
    1      C      -0.6961260000    -1.1364190000     0.0000000000
    2      C       0.6961260000    -1.1364190000     0.0000000000
    3      N      -1.4175320000     0.0000000000     0.0000000000
    4      N       1.4175320000     0.0000000000     0.0000000000
    5      C       0.6961260000     1.1364190000     0.0000000000
    6      C      -0.6961260000     1.1364190000     0.0000000000
    7      H       1.2506250000     2.0671600000     0.0000000000
    8      H      -1.2506250000     2.0671600000     0.0000000000
    9      H       1.2506250000    -2.0671600000     0.0000000000
   10      H      -1.2506250000    -2.0671600000     0.0000000000
 ----------------------------------------------------------------

    9    -262.4996369936      4.39E-09 Convergence criterion met
 Total energy in the final basis set = -262.4996369936
  Term symbol:  2 (-) A                                     R^2 =  1.55210e-12
  Excitation energy:                                             404.229181 eV
  Term symbol:  3 (-) A                                     R^2 =  8.84904e-13
  Excitation energy:                                             407.109809 eV
  Term symbol:  4 (-) A                                     R^2 =  6.22447e-13
  Excitation energy:                                             407.976782 eV
  Term symbol:  5 (-) A                                     R^2 =  3.93479e-12
  Excitation energy:                                             408.219556 eV
  Term symbol:  6 (-) A                                     R^2 =  3.52490e-13
  Excitation energy:                                             408.389973 eV
  Term symbol:  7 (-) A                                     R^2 =  8.11537e-13
  Excitation energy:                                             409.847034 eV
  Term symbol:  8 (-) A                                     R^2 =  6.12579e-13
  Excitation energy:                                             410.053468 eV
  Term symbol:  9 (-) A                                     R^2 =  4.59500e-12
  Excitation energy:                                             410.107707 eV
  Term symbol:  10 (-) A                                    R^2 =  2.75286e-12
  Excitation energy:                                             412.343267 eV
  Excited state 10 (A)                                             [converged]
  Term symbol:  11 (-) A                                    R^2 =  1.35818e-12
  Excitation energy:                                             412.426262 eV
  Excited state 11 (A)                                             [converged]
  Term symbol:  12 (-) A                                    R^2 =  1.02178e-11
  Excitation energy:                                             412.887692 eV
  Excited state 12 (A)                                             [converged]
  Term symbol:  13 (-) A                                    R^2 =  1.76607e-11
  Excitation energy:                                             413.019363 eV
  Excited state 13 (A)                                             [converged]
  Term symbol:  14 (-) A                                    R^2 =  1.67257e-10
  Excitation energy:                                             413.084530 eV
  Excited state 14 (A)                                             [converged]
  Term symbol:  15 (-) A                                    R^2 =  4.89649e-10
  Excitation energy:                                             413.292496 eV
  Excited state 15 (A)                                             [converged]
  Term symbol:  16 (-) A                                    R^2 =  2.80857e-10
  Excitation energy:                                             413.315618 eV
  Excited state 16 (A)                                             [converged]
  Term symbol:  17 (-) A                                    R^2 =  1.22876e-11
  Excitation energy:                                             413.411832 eV
  Excited state 17 (A)                                             [converged]
  Excitation energy:                                             413.491947 eV
  Excited state 18 (A)                                             [converged]
  Term symbol:  19 (-) A                                    R^2 =  2.97066e-11
  Excitation energy:                                             413.605934 eV
  Excited state 19 (A)                                             [converged]
  Term symbol:  20 (-) A                                    R^2 =  7.44405e-11
  Excitation energy:                                             413.715234 eV
  Excited state 20 (A)                                             [converged]
  Term symbol:  21 (-) A                                    R^2 =  1.32060e-10
  Excitation energy:                                             413.772991 eV
  Excited state 21 (A)                                             [converged]
  Term symbol:  22 (-) A                                    R^2 =  1.70093e-11
  Excitation energy:                                             413.796551 eV
  Excited state 22 (A)                                             [converged]
  Term symbol:  23 (-) A                                    R^2 =  5.27690e-09
  Excitation energy:                                             413.871231 eV
  Excited state 23 (A)                                             [converged]
  Term symbol:  24 (-) A                                    R^2 =  1.62492e-09
  Excitation energy:                                             414.246101 eV
  Excited state 24 (A)                                             [converged]
  Term symbol:  25 (-) A                                    R^2 =  3.10917e-09
  Excitation energy:                                             414.308043 eV
  Excited state 25 (A)                                         [not converged]
  Term symbol:  26 (-) A                                    R^2 =  1.85211e-04
  Excitation energy:                                             414.363613 eV
  Excited state 26 (A)                                             [converged]
  Term symbol:  27 (-) A                                    R^2 =  9.33880e-10
  Excitation energy:                                             414.439813 eV
  Excited state 27 (A)                                             [converged]
  Term symbol:  28 (-) A                                    R^2 =  6.84643e-09
  Excitation energy:                                             414.498259 eV
  Excited state 28 (A)                                             [converged]
  Term symbol:  29 (-) A                                    R^2 =  1.24737e-08
  Excitation energy:                                             414.571799 eV
  Excited state 29 (A)                                         [not converged]
  Term symbol:  30 (-) A                                    R^2 =  1.44116e-05
  Excitation energy:                                             414.802658 eV
  Excited state 30 (A)                                             [converged]
  Term symbol:  31 (-) A                                    R^2 =  3.79373e-07
  Excitation energy:                                             414.864433 eV

                    Orbital Energies (a.u.)
 --------------------------------------------------------------

 Alpha MOs
 -- Occupied --
-15.662 -15.662 -11.403 -11.403 -11.402 -11.402  -1.399  -1.292
 -1.177  -1.010  -0.980  -0.818  -0.798  -0.766  -0.711  -0.673
 -0.633  -0.564  -0.507  -0.488  -0.487

 Beta MOs
 -- Occupied --
-15.672 -15.672 -11.395 -11.395 -11.394 -11.394  -1.395  -1.311
 -1.125  -0.994  -0.963  -0.815  -0.795  -0.759  -0.702  -0.634
 -0.617  -0.574  -0.540  -0.495  -0.083

          Ground-State Mulliken Net Atomic Charges

     Atom                 Charge (a.u.)    Spin (a.u.)
  --------------------------------------------------------
      1 C                    -0.639795      -0.085037
      2 C                    -0.639795      -0.085037
      3 N                     0.474026       0.100421
      4 N                     0.474026       0.100421
      5 C                    -0.639795      -0.085037
      6 C                    -0.639795      -0.085037
      7 H                     0.402782       0.034826
      8 H                     0.402782       0.034826
      9 H                     0.402782       0.034826
     10 H                     0.402782       0.034826
  --------------------------------------------------------
  Sum of atomic charges =     0.000000

                    Cartesian Multipole Moments
 -----------------------------------------------------------------
    Charge (ESU x 10^10)
                 0.0000
    Dipole Moment (Debye)
         X       0.0000      Y       0.0000      Z       0.0000
       Tot       0.0000
    Quadrupole Moments (Debye-Ang)
        XX     -53.8582     XY       0.0000     YY     -39.4385
        XZ       0.0000     YZ       0.0000     ZZ     -51.8169

 Total job time:  22404.39s(wall), 52636.44s(cpu)
        *  Thank you very much for using Q-Chem.  Have a nice day.  *
