 Q-Chem 4.3, Q-Chem, Inc., Pleasanton, CA (2015)
 Q-Chem 4.3.0 for Intel X86 Linux

User input:
--------------------------------------------------------------
$comment
XAS calculation for the 2b valence excited for water using cvs-adc(2)-x + 6-311+G* basis set
job 1 - determination of HF orbitals
$end

$molecule
0 1
C    -0.696126    -1.136419     0.000000
C     0.696126    -1.136419     0.000000
N    -1.417532     0.000000     0.000000
N     1.417532     0.000000     0.000000
C     0.696126     1.136419     0.000000
C    -0.696126     1.136419     0.000000
H     1.250625     2.067160     0.000000
H    -1.250625     2.067160     0.000000
H     1.250625    -2.067160     0.000000
H    -1.250625    -2.067160     0.000000
$end

$rem
jobtype      sp
exchange     hf
basis        6-31G*
unrestricted true
$end

--------------------------------------------------------------

    8    -262.6792995593      3.90E-06 Convergence criterion met
 Total energy in the final basis set = -262.6792995593
 Total job time:  2.43s(wall), 9.26s(cpu)
        *  Thank you very much for using Q-Chem.  Have a nice day.  *
 Q-Chem 4.3, Q-Chem, Inc., Pleasanton, CA (2015)
 Q-Chem 4.3.0 for Intel X86 Linux

User input:
--------------------------------------------------------------

$comment
job2 - MOM calculation for 2b excited state wavefuntion
$end

$molecule
read
$end

$rem
JOBTYPE           SP
EXCHANGE          HF
BASIS             6-31G*
SCF_GUESS         READ
MOM_START         1
UNRESTRICTED      TRUE
$end

$swap_occupied_virtual
beta   20  22	!beta electron in RHF HOMO-1 moved to RHF LUMO
$end

--------------------------------------------------------------

    8    -262.5039509760      3.38E-06 Convergence criterion met
 Total energy in the final basis set = -262.5039509760
 Total job time:  2.39s(wall), 9.57s(cpu)
        *  Thank you very much for using Q-Chem.  Have a nice day.  *
 Q-Chem 4.3, Q-Chem, Inc., Pleasanton, CA (2015)
 Q-Chem 4.3.0 for Intel X86 Linux

User input:
--------------------------------------------------------------

$comment
job3 - cvs-adc(2)-x calculation with mom to prevent collapse to ground state
$end

$molecule
read
$end

$rem
mem_total 3000
mem_static 1500
method cvs-adc(2)-x
basis 6-31G*
ee_singlets 6
cc_rest_occ 1                  !only excitations from the 1st orbital (N 1s)
unrestricted  true
max_scf_cycles 200
mom_start 1
scf_guess read
symmetry off
$end

--------------------------------------------------------------

             Standard Nuclear Orientation (Angstroms)
    I     Atom           X                Y                Z
 ----------------------------------------------------------------
    1      C       1.1364190000    -0.6961260000     0.0000000000
    2      C       1.1364190000     0.6961260000     0.0000000000
    3      N       0.0000000000    -1.4175320000     0.0000000000
    4      N       0.0000000000     1.4175320000     0.0000000000
    5      C      -1.1364190000     0.6961260000     0.0000000000
    6      C      -1.1364190000    -0.6961260000     0.0000000000
    7      H      -2.0671600000     1.2506250000     0.0000000000
    8      H      -2.0671600000    -1.2506250000     0.0000000000
    9      H       2.0671600000     1.2506250000     0.0000000000
   10      H       2.0671600000    -1.2506250000     0.0000000000
 ----------------------------------------------------------------

    7    -262.5039514809      3.93E-09 Convergence criterion met
 Total energy in the final basis set = -262.5039514809
  Term symbol:  1 (-) B3g                                   R^2 =  5.27791e-13
  Excitation energy:                                             404.921551 eV
  Term symbol:  2 (-) B3g                                   R^2 =  1.29324e-12
  Excitation energy:                                             408.588756 eV
  Term symbol:  1 (-) B2u                                   R^2 =  3.83897e-13
  Excitation energy:                                             409.029837 eV
  Term symbol:  1 (-) B3u                                   R^2 =  4.68767e-13
  Excitation energy:                                             410.605132 eV
  Term symbol:  2 (-) B3u                                   R^2 =  7.85269e-13
  Excitation energy:                                             410.929981 eV
  Term symbol:  1 (-) B2g                                   R^2 =  1.91287e-13
  Excitation energy:                                             411.633940 eV
  Term symbol:  1 (-) Au                                    R^2 =  2.44536e-13
  Excitation energy:                                             411.826113 eV
  Term symbol:  2 (-) Au                                    R^2 =  2.11916e-13
  Excitation energy:                                             411.940593 eV
  Term symbol:  2 (-) B2g                                   R^2 =  1.53291e-13
  Excitation energy:                                             412.743001 eV
  Excited state 10 (Ag)                                            [converged]
  Term symbol:  1 (-) B1u                                   R^2 =  1.15614e-10
  Excitation energy:                                             412.857899 eV
  Excited state 11 (Ag)                                            [converged]
  Term symbol:  2 (-) B1u                                   R^2 =  2.68228e-11
  Excitation energy:                                             412.940727 eV
  Excited state 12 (B1u)                                           [converged]
  Term symbol:  2 (-) Ag                                    R^2 =  1.03827e-13
  Excitation energy:                                             413.217548 eV
  Excited state 13 (B1u)                                           [converged]
  Term symbol:  3 (-) Ag                                    R^2 =  2.08832e-13
  Excitation energy:                                             413.830994 eV
  Excited state 14 (B3g)                                           [converged]
  Term symbol:  2 (-) B2u                                   R^2 =  8.19514e-13
  Excitation energy:                                             414.093706 eV
  Excited state 15 (Ag)                                            [converged]
  Term symbol:  3 (-) B1u                                   R^2 =  2.42436e-09
  Excitation energy:                                             414.282225 eV
  Excited state 16 (Ag)                                            [converged]
  Term symbol:  4 (-) B1u                                   R^2 =  1.34779e-08
  Excitation energy:                                             415.064412 eV
  Excited state 17 (B2u)                                           [converged]
  Excitation energy:                                             417.797292 eV
  Excited state 36 (B3u)                                           [converged]
  Term symbol:  5 (-) B2g                                   R^2 =  3.97343e-10
  Excitation energy:                                             417.814598 eV
  Excited state 37 (Au)                                            [converged]
  Term symbol:  3 (-) B1g                                   R^2 =  4.60406e-09
  Excitation energy:                                             417.992535 eV
  Excited state 38 (Au)                                            [converged]
  Term symbol:  4 (-) B1g                                   R^2 =  9.72206e-09
  Excitation energy:                                             418.173358 eV
  Excited state 39 (B3g)                                           [converged]
  Term symbol:  6 (-) B2u                                   R^2 =  9.35456e-07
  Excitation energy:                                             418.218678 eV
  Excited state 40 (B2g)                                           [converged]
  Term symbol:  5 (-) B3u                                   R^2 =  4.20344e-07
  Excitation energy:                                             418.253640 eV
  Excited state 41 (B1g)                                           [converged]
  Term symbol:  5 (-) Au                                    R^2 =  1.28313e-09
  Excitation energy:                                             418.282875 eV
  Excited state 42 (B2g)                                           [converged]
  Term symbol:  6 (-) B3u                                   R^2 =  5.89033e-07
  Excitation energy:                                             418.386555 eV
  Excited state 43 (Au)                                            [converged]
  Term symbol:  5 (-) B1g                                   R^2 =  6.89945e-08
  Excitation energy:                                             418.574433 eV
  Excited state 44 (B1u)                                           [converged]
  Term symbol:  6 (-) Ag                                    R^2 =  2.32478e-07
  Excitation energy:                                             418.657644 eV
  Excited state 45 (Au)                                            [converged]
  Term symbol:  6 (-) B1g                                   R^2 =  5.24161e-07
  Excitation energy:                                             418.756000 eV
  Excited state 46 (B1g)                                           [converged]
  Term symbol:  6 (-) Au                                    R^2 =  7.02078e-07
  Excitation energy:                                             418.834447 eV
  Excited state 47 (B1u)                                           [converged]
  Term symbol:  7 (-) Ag                                    R^2 =  9.90360e-07
  Excitation energy:                                             418.961603 eV
  Excited state 48 (B3u)                                           [converged]
  Term symbol:  6 (-) B2g                                   R^2 =  9.50818e-07
  Excitation energy:                                             419.310445 eV

             Orbital Energies (a.u.) and Symmetries
 --------------------------------------------------------------

 Alpha MOs, Unrestricted
 -- Occupied --
-15.594 -15.594 -11.289 -11.289 -11.288 -11.288  -1.293  -1.206
  1 B2u   1 Ag    1 B3u   2 Ag    2 B2u   1 B1g   3 Ag    3 B2u
 -1.050  -0.902  -0.886  -0.734  -0.701  -0.679  -0.612  -0.549
  2 B3u   4 Ag    2 B1g   5 Ag    3 B3u   4 B2u   4 B3u   3 B1g
 -0.546  -0.539  -0.446  -0.398  -0.348
  1 B1u   5 B2u   6 Ag    1 B3g   1 B2g

 Beta MOs, Unrestricted
 -- Occupied --
-15.596 -15.596 -11.288 -11.288 -11.287 -11.287  -1.295  -1.210
  1 B2u   1 Ag    1 B3u   2 Ag    1 B1g   2 B2u   3 Ag    3 B2u
 -1.045  -0.888  -0.875  -0.700  -0.676  -0.669  -0.613  -0.591
  2 B3u   4 Ag    2 B1g   5 Ag    3 B3u   4 B2u   1 B1u   4 B3u
 -0.543  -0.521  -0.391  -0.348  -0.230
  3 B1g   1 B3g   1 B2g   5 B2u   2 B1u

          Ground-State Mulliken Net Atomic Charges

     Atom                 Charge (a.u.)    Spin (a.u.)
  --------------------------------------------------------
      1 C                    -0.004266      -0.011093
      2 C                    -0.004266      -0.011093
      3 N                    -0.463067      -0.052251
      4 N                    -0.463067      -0.052251
      5 C                    -0.004266      -0.011093
      6 C                    -0.004266      -0.011093
      7 H                     0.235799       0.037219
      8 H                     0.235799       0.037219
      9 H                     0.235799       0.037219
     10 H                     0.235799       0.037219
  --------------------------------------------------------
  Sum of atomic charges =     0.000000

                    Cartesian Multipole Moments
 -----------------------------------------------------------------
    Charge (ESU x 10^10)
                 0.0000
    Dipole Moment (Debye)
         X       0.0000      Y       0.0000      Z       0.0000
       Tot       0.0000
    Quadrupole Moments (Debye-Ang)
        XX     -25.8350     XY       0.0000     YY     -37.8062
        XZ       0.0000     YZ       0.0000     ZZ     -37.7918

 Total job time:  1048.18s(wall), 5514.40s(cpu)
        *  Thank you very much for using Q-Chem.  Have a nice day.  *
