 Q-Chem 4.3, Q-Chem, Inc., Pleasanton, CA (2015)
 Q-Chem 4.3.0 for Intel X86 Linux

User input:
--------------------------------------------------------------
$comment
job3 - cvs-adc(2)-x calculation with mom to prevent collapse to ground state
$end

$molecule
0 1
C    -0.696126    -1.136419     0.000000
C     0.696126    -1.136419     0.000000
N    -1.417532     0.000000     0.000000
N     1.417532     0.000000     0.000000
C     0.696126     1.136419     0.000000
C    -0.696126     1.136419     0.000000
H     1.250625     2.067160     0.000000
H    -1.250625     2.067160     0.000000
H     1.250625    -2.067160     0.000000
H    -1.250625    -2.067160     0.000000
$end

$rem
mem_total 3000
mem_static 1500
sym_ignore true
method cvs-adc(2)-x
basis 6-31G*
ee_singlets 20
cc_rest_occ 1                  !only excitations from the 1st orbital (N 1s)
unrestricted  true
max_scf_cycles 200
$end

--------------------------------------------------------------

             Standard Nuclear Orientation (Angstroms)
    I     Atom           X                Y                Z
 ----------------------------------------------------------------
    1      C      -0.6961260000    -1.1364190000     0.0000000000
    2      C       0.6961260000    -1.1364190000     0.0000000000
    3      N      -1.4175320000     0.0000000000     0.0000000000
    4      N       1.4175320000     0.0000000000     0.0000000000
    5      C       0.6961260000     1.1364190000     0.0000000000
    6      C      -0.6961260000     1.1364190000     0.0000000000
    7      H       1.2506250000     2.0671600000     0.0000000000
    8      H      -1.2506250000     2.0671600000     0.0000000000
    9      H       1.2506250000    -2.0671600000     0.0000000000
   10      H      -1.2506250000    -2.0671600000     0.0000000000
 ----------------------------------------------------------------

   12    -262.6792998248      3.05E-09 Convergence criterion met
 Total energy in the final basis set = -262.6792998248
  Term symbol:  2 (-) A                                     R^2 =  6.74638e-13
  Excitation energy:                                             408.326608 eV
  Term symbol:  3 (-) A                                     R^2 =  1.97224e-13
  Excitation energy:                                             409.006353 eV
  Term symbol:  4 (-) A                                     R^2 =  5.92489e-14
  Excitation energy:                                             410.425557 eV
  Term symbol:  5 (-) A                                     R^2 =  7.56556e-13
  Excitation energy:                                             410.525360 eV
  Term symbol:  6 (-) A                                     R^2 =  4.24383e-13
  Excitation energy:                                             413.861441 eV
  Term symbol:  7 (-) A                                     R^2 =  5.52363e-13
  Excitation energy:                                             414.198053 eV
  Term symbol:  8 (-) A                                     R^2 =  3.88849e-13
  Excitation energy:                                             415.132070 eV
  Term symbol:  9 (-) A                                     R^2 =  1.04058e-12
  Excitation energy:                                             415.316457 eV
  Term symbol:  10 (-) A                                    R^2 =  9.98750e-13
  Excitation energy:                                             415.516141 eV
  Excited state 10 (A)                                             [converged]
  Term symbol:  11 (-) A                                    R^2 =  2.67086e-13
  Excitation energy:                                             415.923312 eV
  Excited state 11 (A)                                             [converged]
  Term symbol:  12 (-) A                                    R^2 =  1.45270e-12
  Excitation energy:                                             415.929407 eV
  Excited state 12 (A)                                             [converged]
  Term symbol:  13 (-) A                                    R^2 =  6.04099e-13
  Excitation energy:                                             416.006683 eV
  Excited state 13 (A)                                             [converged]
  Term symbol:  14 (-) A                                    R^2 =  6.81389e-07
  Excitation energy:                                             416.135653 eV
  Excited state 14 (A)                                             [converged]
  Term symbol:  15 (-) A                                    R^2 =  3.16169e-10
  Excitation energy:                                             416.144948 eV
  Excited state 15 (A)                                             [converged]
  Term symbol:  16 (-) A                                    R^2 =  5.15135e-11
  Excitation energy:                                             416.677638 eV
  Excited state 16 (A)                                             [converged]
  Term symbol:  17 (-) A                                    R^2 =  1.38315e-11
  Excitation energy:                                             416.763463 eV
  Excited state 17 (A)                                             [converged]
  Term symbol:  18 (-) A                                    R^2 =  3.84368e-10
  Excitation energy:                                             416.871576 eV
  Excited state 18 (A)                                             [converged]
  Term symbol:  19 (-) A                                    R^2 =  5.90826e-10
  Excitation energy:                                             416.923494 eV
  Excited state 19 (A)                                             [converged]
  Term symbol:  20 (-) A                                    R^2 =  3.63444e-07
  Excitation energy:                                             417.784025 eV
  Excited state 20 (A)                                             [converged]
  Term symbol:  21 (-) A                                    R^2 =  3.88411e-07
  Excitation energy:                                             418.171091 eV

                    Orbital Energies (a.u.)
 --------------------------------------------------------------

 Alpha MOs
 -- Occupied --
-15.600 -15.600 -11.287 -11.287 -11.286 -11.286  -1.301  -1.213
 -1.052  -0.902  -0.883  -0.724  -0.698  -0.677  -0.610  -0.568
 -0.547  -0.496  -0.428  -0.411  -0.358

 Beta MOs
 -- Occupied --
-15.600 -15.600 -11.287 -11.287 -11.286 -11.286  -1.301  -1.213
 -1.052  -0.902  -0.883  -0.724  -0.698  -0.677  -0.610  -0.568
 -0.547  -0.496  -0.428  -0.411  -0.358

          Ground-State Mulliken Net Atomic Charges

     Atom                 Charge (a.u.)    Spin (a.u.)
  --------------------------------------------------------
      1 C                     0.014416       0.000000
      2 C                     0.014416       0.000000
      3 N                    -0.464762       0.000000
      4 N                    -0.464762       0.000000
      5 C                     0.014416       0.000000
      6 C                     0.014416       0.000000
      7 H                     0.217964       0.000000
      8 H                     0.217964       0.000000
      9 H                     0.217964       0.000000
     10 H                     0.217964       0.000000
  --------------------------------------------------------
  Sum of atomic charges =     0.000000

                    Cartesian Multipole Moments
 -----------------------------------------------------------------
    Charge (ESU x 10^10)
                 0.0000
    Dipole Moment (Debye)
         X       0.0000      Y       0.0000      Z       0.0000
       Tot       0.0000
    Quadrupole Moments (Debye-Ang)
        XX     -41.5290     XY       0.0000     YY     -26.0158
        XZ       0.0000     YZ       0.0000     ZZ     -36.3330

 Total job time:  2257.56s(wall), 6909.92s(cpu)
        *  Thank you very much for using Q-Chem.  Have a nice day.  *
