 Q-Chem 4.3, Q-Chem, Inc., Pleasanton, CA (2015)
 Q-Chem 4.3.0 for Intel X86 Linux

User input:
--------------------------------------------------------------
$comment
XAS calculation for the 2b valence excited for water using TDDFT SRC1 + 6-31G* basis set
$end

$molecule
0 1
C    -0.696126    -1.136419     0.000000
C     0.696126    -1.136419     0.000000
N    -1.417532     0.000000     0.000000
N     1.417532     0.000000     0.000000
C     0.696126     1.136419     0.000000
C    -0.696126     1.136419     0.000000
H     1.250625     2.067160     0.000000
H    -1.250625     2.067160     0.000000
H     1.250625    -2.067160     0.000000
H    -1.250625    -2.067160     0.000000
$end

$rem
JOBTYPE           sp
METHOD            B3LYP
BASIS             6-31G*
UNRESTRICTED TRUE
$end

--------------------------------------------------------------

    7    -264.3168793821      2.19E-06 Convergence criterion met
 Total energy in the final basis set = -264.3168793821
 Total job time:  15.68s(wall), 15.34s(cpu)
        *  Thank you very much for using Q-Chem.  Have a nice day.  *
 Q-Chem 4.3, Q-Chem, Inc., Pleasanton, CA (2015)
 Q-Chem 4.3.0 for Intel X86 Linux

User input:
--------------------------------------------------------------

$molecule
read
$end

$rem
JOBTYPE           SP
METHOD            B3LYP
BASIS             6-31G*
SCF_GUESS         READ
MOM_START         1
UNRESTRICTED      TRUE
$end

$swap_occupied_virtual
beta   20  22        !beta electron in RHF HOMO-1 moved to RHF LUMO
$end

--------------------------------------------------------------

    6    -264.1454111576      4.33E-06 Convergence criterion met
 Total energy in the final basis set = -264.1454111576
 Total job time:  2.14s(wall), 10.20s(cpu)
        *  Thank you very much for using Q-Chem.  Have a nice day.  *
 Q-Chem 4.3, Q-Chem, Inc., Pleasanton, CA (2015)
 Q-Chem 4.3.0 for Intel X86 Linux

User input:
--------------------------------------------------------------

$molecule
read
$end

$rem
exchange b3lyp
basis 6-31G*
sym_ignore true
cis_n_roots 30
cis_triplets false
trnss true                      !reduced single excitation space used
trtype 3                        !to be defined in solute keyword, so oribtal 1 (1s O)
n_sol 1
unrestricted true
mom_start 1
scf_guess read
$end

$solute
1
$end

--------------------------------------------------------------

             Standard Nuclear Orientation (Angstroms)
    I     Atom           X                Y                Z
 ----------------------------------------------------------------
    1      C      -0.6961260000    -1.1364190000     0.0000000000
    2      C       0.6961260000    -1.1364190000     0.0000000000
    3      N      -1.4175320000     0.0000000000     0.0000000000
    4      N       1.4175320000     0.0000000000     0.0000000000
    5      C       0.6961260000     1.1364190000     0.0000000000
    6      C      -0.6961260000     1.1364190000     0.0000000000
    7      H       1.2506250000     2.0671600000     0.0000000000
    8      H      -1.2506250000     2.0671600000     0.0000000000
    9      H       1.2506250000    -2.0671600000     0.0000000000
   10      H      -1.2506250000    -2.0671600000     0.0000000000
 ----------------------------------------------------------------

   15    -264.1454116663      2.27E-09 Convergence criterion met
 Total energy in the final basis set = -264.1454116663

         TDDFT/TDA Excitation Energies
 ---------------------------------------------------

 Excited state   1: excitation energy (eV) =  381.8107
    Total energy for state   1:   -250.114127549692
    <S**2>     :  1.0225
    Trans. Mom.:  0.0000 X   0.0000 Y   0.0000 Z
    Strength   :  0.0000
    D(  1) --> V(  1) amplitude =  1.0000 beta

 Excited state   2: excitation energy (eV) =  386.0705
    Total energy for state   2:   -249.957581574182
    <S**2>     :  1.0222
    Trans. Mom.:  0.0000 X   0.0000 Y   0.0000 Z
    Strength   :  0.0000
    D(  1) --> V(  2) amplitude =  0.9991 alpha

 Excited state   3: excitation energy (eV) =  386.4205
    Total energy for state   3:   -249.944718150303
    <S**2>     :  2.0222
    Trans. Mom.:  0.0000 X   0.0000 Y   0.0000 Z
    Strength   :  0.0000
    D(  1) --> V(  1) amplitude =  0.9999 alpha

 Excited state   4: excitation energy (eV) =  387.6360
    Total energy for state   4:   -249.900051307129
    <S**2>     :  2.0219
    Trans. Mom.:  0.0000 X   0.0000 Y   0.0000 Z
    Strength   :  0.0000
    D(  1) --> V(  2) amplitude =  1.0000 beta

 Excited state   5: excitation energy (eV) =  390.5899
    Total energy for state   5:   -249.791498153582
    <S**2>     :  2.9687
    Trans. Mom.:  0.0000 X   0.0000 Y  -0.0131 Z
    Strength   :  0.0017
    D(  1) --> V(  5) amplitude =  0.7799 alpha
    D(  1) --> V(  4) amplitude =  0.6247 beta

 Excited state   6: excitation energy (eV) =  390.9338
    Total energy for state   6:   -249.778857385339
    <S**2>     :  1.0373
    Trans. Mom.:  0.0000 X   0.0000 Y   0.0639 Z
    Strength   :  0.0392
    D(  1) --> V(  5) amplitude = -0.6247 alpha
    D(  1) --> V(  4) amplitude =  0.7808 beta

 Excited state   7: excitation energy (eV) =  390.9668
    Total energy for state   7:   -249.777645869365
    <S**2>     :  2.0758
    Trans. Mom.: -0.0106 X   0.0000 Y   0.0000 Z
    Strength   :  0.0011
    D(  1) --> V(  3) amplitude =  0.9980 alpha

 Excited state   8: excitation energy (eV) =  391.3050
    Total energy for state   8:   -249.765218622782
    <S**2>     :  1.9697
    Trans. Mom.:  0.0104 X   0.0000 Y   0.0000 Z
    Strength   :  0.0010
    D(  1) --> V(  3) amplitude =  0.9967 beta

 Excited state   9: excitation energy (eV) =  391.4984
    Total energy for state   9:   -249.758109199230
    <S**2>     :  2.0465
    Trans. Mom.:  0.0000 X   0.0000 Y   0.0000 Z
    Strength   :  0.0000
    D(  1) --> V(  4) amplitude =  0.9989 alpha

 Excited state  10: excitation energy (eV) =  391.8196
    Total energy for state  10:   -249.746307092813
    <S**2>     :  1.9976
    Trans. Mom.:  0.0000 X   0.0000 Y   0.0000 Z
    Strength   :  0.0000
    D(  1) --> V(  5) amplitude =  0.9989 beta

 Excited state  11: excitation energy (eV) =  392.1625
    Total energy for state  11:   -249.733704806459
    <S**2>     :  2.9811
    Trans. Mom.:  0.0078 X   0.0000 Y   0.0000 Z
    Strength   :  0.0006
    D(  1) --> V(  8) amplitude =  0.7929 alpha
    D(  1) --> V(  8) amplitude =  0.6023 beta

 Excited state  12: excitation energy (eV) =  392.2121
    Total energy for state  12:   -249.731883140831
    <S**2>     :  2.1927
    Trans. Mom.:  0.0000 X   0.0000 Y   0.0000 Z
    Strength   :  0.0000
    D(  1) --> V(  6) amplitude =  0.9952 alpha

 Excited state  13: excitation energy (eV) =  392.5039
    Total energy for state  13:   -249.721158687004
    <S**2>     :  2.1359
    Trans. Mom.:  0.0000 X  -0.0162 Y   0.0000 Z
    Strength   :  0.0025
    D(  1) --> V(  7) amplitude =  0.9955 alpha

 Excited state  14: excitation energy (eV) =  392.5695
    Total energy for state  14:   -249.718746541187
    <S**2>     :  1.8508
    Trans. Mom.:  0.0000 X   0.0000 Y   0.0000 Z
    Strength   :  0.0000
    D(  1) --> V(  6) amplitude =  0.9956 beta

 Excited state  15: excitation energy (eV) =  392.8809
    Total energy for state  15:   -249.707303825351
    <S**2>     :  1.0591
    Trans. Mom.: -0.0356 X   0.0000 Y   0.0000 Z
    Strength   :  0.0122
    D(  1) --> V(  8) amplitude = -0.6044 alpha
    D(  1) --> V(  8) amplitude =  0.7946 beta

 Excited state  16: excitation energy (eV) =  392.8941
    Total energy for state  16:   -249.706818981065
    <S**2>     :  1.9078
    Trans. Mom.:  0.0000 X  -0.0159 Y   0.0000 Z
    Strength   :  0.0024
    D(  1) --> V(  7) amplitude =  0.9962 beta

 Excited state  17: excitation energy (eV) =  395.1588
    Total energy for state  17:   -249.623593494643
    <S**2>     :  2.8102
    Trans. Mom.:  0.0000 X   0.0000 Y   0.0000 Z
    Strength   :  0.0000
    D(  1) --> V(  9) amplitude =  0.8929 alpha
    D(  1) --> V(  9) amplitude =  0.4374 beta

 Excited state  18: excitation energy (eV) =  395.6673
    Total energy for state  18:   -249.604906848424
    <S**2>     :  1.2317
    Trans. Mom.:  0.0000 X   0.0000 Y   0.0000 Z
    Strength   :  0.0000
    D(  1) --> V(  9) amplitude = -0.4394 alpha
    D(  1) --> V(  9) amplitude =  0.8953 beta

 Excited state  19: excitation energy (eV) =  395.9738
    Total energy for state  19:   -249.593642256455
    <S**2>     :  2.0945
    Trans. Mom.:  0.0000 X  -0.0141 Y   0.0000 Z
    Strength   :  0.0019
    D(  1) --> V( 10) amplitude =  0.9943 alpha

 Excited state  20: excitation energy (eV) =  396.3266
    Total energy for state  20:   -249.580677208946
    <S**2>     :  2.9516
    Trans. Mom.:  0.0000 X   0.0000 Y   0.0000 Z
    Strength   :  0.0000
    D(  1) --> V( 11) amplitude =  0.8231 alpha
    D(  1) --> V( 11) amplitude =  0.5612 beta

 Excited state  21: excitation energy (eV) =  396.4559
    Total energy for state  21:   -249.575924746804
    <S**2>     :  1.9493
    Trans. Mom.:  0.0000 X  -0.0131 Y   0.0000 Z
    Strength   :  0.0017
    D(  1) --> V( 10) amplitude =  0.9950 beta

 Excited state  22: excitation energy (eV) =  396.8786
    Total energy for state  22:   -249.560389693350
    <S**2>     :  1.0929
    Trans. Mom.:  0.0000 X   0.0000 Y   0.0000 Z
    Strength   :  0.0000
    D(  1) --> V( 11) amplitude = -0.5631 alpha
    D(  1) --> V( 11) amplitude =  0.8224 beta

 Excited state  23: excitation energy (eV) =  398.5692
    Total energy for state  23:   -249.498264279277
    <S**2>     :  2.4223
    Trans. Mom.:  0.0000 X   0.0000 Y   0.0000 Z
    Strength   :  0.0000
    D(  1) --> V( 12) amplitude =  0.9739 alpha
    D(  1) --> V( 12) amplitude =  0.2063 beta

 Excited state  24: excitation energy (eV) =  399.1386
    Total energy for state  24:   -249.477337311334
    <S**2>     :  1.6190
    Trans. Mom.:  0.0000 X   0.0000 Y   0.0000 Z
    Strength   :  0.0000
    D(  1) --> V( 12) amplitude = -0.2065 alpha
    D(  1) --> V( 12) amplitude =  0.9764 beta

 Excited state  25: excitation energy (eV) =  400.2588
    Total energy for state  25:   -249.436172497422
    <S**2>     :  2.7908
    Trans. Mom.:  0.0000 X   0.0274 Y   0.0000 Z
    Strength   :  0.0074
    D(  1) --> V( 13) amplitude =  0.8974 alpha
    D(  1) --> V( 13) amplitude =  0.4234 beta

 Excited state  26: excitation energy (eV) =  400.8221
    Total energy for state  26:   -249.415469609521
    <S**2>     :  1.2500
    Trans. Mom.:  0.0000 X  -0.0652 Y   0.0000 Z
    Strength   :  0.0417
    D(  1) --> V( 13) amplitude = -0.4262 alpha
    D(  1) --> V( 13) amplitude =  0.9021 beta

 Excited state  27: excitation energy (eV) =  401.0962
    Total energy for state  27:   -249.405395475150
    <S**2>     :  2.0798
    Trans. Mom.:  0.0000 X   0.0000 Y   0.0000 Z
    Strength   :  0.0000
    D(  1) --> V( 14) amplitude =  0.9990 alpha

 Excited state  28: excitation energy (eV) =  401.1442
    Total energy for state  28:   -249.403632727475
    <S**2>     :  2.1200
    Trans. Mom.:  0.0000 X   0.0000 Y   0.0000 Z
    Strength   :  0.0000
    D(  1) --> V( 15) amplitude =  0.9958 alpha

 Excited state  29: excitation energy (eV) =  401.4887
    Total energy for state  29:   -249.390972717211
    <S**2>     :  1.9238
    Trans. Mom.:  0.0000 X   0.0000 Y   0.0000 Z
    Strength   :  0.0000
    D(  1) --> V( 14) amplitude =  0.9963 beta

 Excited state  30: excitation energy (eV) =  401.7573
    Total energy for state  30:   -249.381103102085
    <S**2>     :  1.9638
    Trans. Mom.:  0.0000 X   0.0000 Y   0.0000 Z
    Strength   :  0.0000
    D(  1) --> V( 15) amplitude =  0.9995 beta

 ---------------------------------------------------

                    Orbital Energies (a.u.)
 --------------------------------------------------------------

 Alpha MOs
 -- Occupied --
-14.304 -14.304 -10.256 -10.256 -10.255 -10.255  -0.973  -0.887
 -0.796  -0.669  -0.658  -0.533  -0.513  -0.502  -0.454  -0.423
 -0.391  -0.305  -0.300  -0.282  -0.232

 Beta MOs
 -- Occupied --
-14.314 -14.314 -10.252 -10.252 -10.252 -10.252  -0.977  -0.901
 -0.783  -0.672  -0.652  -0.532  -0.513  -0.501  -0.451  -0.418
 -0.392  -0.336  -0.294  -0.242  -0.107

          Ground-State Mulliken Net Atomic Charges

     Atom                 Charge (a.u.)    Spin (a.u.)
  --------------------------------------------------------
      1 C                     0.060958       0.250887
      2 C                     0.060958       0.250887
      3 N                    -0.447291      -0.482582
      4 N                    -0.447291      -0.482582
      5 C                     0.060958       0.250887
      6 C                     0.060958       0.250887
      7 H                     0.162687      -0.009597
      8 H                     0.162687      -0.009596
      9 H                     0.162687      -0.009596
     10 H                     0.162687      -0.009597
  --------------------------------------------------------
  Sum of atomic charges =     0.000000

                    Cartesian Multipole Moments
 -----------------------------------------------------------------
    Charge (ESU x 10^10)
                 0.0000
    Dipole Moment (Debye)
         X       0.0000      Y       0.0000      Z       0.0000
       Tot       0.0000
    Quadrupole Moments (Debye-Ang)
        XX     -42.5391     XY       0.0000     YY     -25.3062
        XZ       0.0000     YZ       0.0000     ZZ     -35.0128

 Total job time:  34.29s(wall), 65.44s(cpu)
        *  Thank you very much for using Q-Chem.  Have a nice day.  *
